 Entering Gaussian System, Link 0=g09
 Input=cisbut.com
 Output=cisbut.log
 Initial command:
 /home/student/g09/l1.exe /home/student/singh/other/Gau-22665.inp -scrdir=/home/student/singh/other/
 Entering Link 1 = /home/student/g09/l1.exe PID=     22667.
  
 Copyright (c) 1988,1990,1992,1993,1995,1998,2003,2009,2011,
            Gaussian, Inc.  All Rights Reserved.
  
 This is part of the Gaussian(R) 09 program.  It is based on
 the Gaussian(R) 03 system (copyright 2003, Gaussian, Inc.),
 the Gaussian(R) 98 system (copyright 1998, Gaussian, Inc.),
 the Gaussian(R) 94 system (copyright 1995, Gaussian, Inc.),
 the Gaussian 92(TM) system (copyright 1992, Gaussian, Inc.),
 the Gaussian 90(TM) system (copyright 1990, Gaussian, Inc.),
 the Gaussian 88(TM) system (copyright 1988, Gaussian, Inc.),
 the Gaussian 86(TM) system (copyright 1986, Carnegie Mellon
 University), and the Gaussian 82(TM) system (copyright 1983,
 Carnegie Mellon University). Gaussian is a federally registered
 trademark of Gaussian, Inc.
  
 This software contains proprietary and confidential information,
 including trade secrets, belonging to Gaussian, Inc.
  
 This software is provided under written license and may be
 used, copied, transmitted, or stored only in accord with that
 written license.
  
 The following legend is applicable only to US Government
 contracts under FAR:
  
                    RESTRICTED RIGHTS LEGEND
  
 Use, reproduction and disclosure by the US Government is
 subject to restrictions as set forth in subparagraphs (a)
 and (c) of the Commercial Computer Software - Restricted
 Rights clause in FAR 52.227-19.
  
 Gaussian, Inc.
 340 Quinnipiac St., Bldg. 40, Wallingford CT 06492
  
  
 ---------------------------------------------------------------
 Warning -- This program may not be used in any manner that
 competes with the business of Gaussian, Inc. or will provide
 assistance to any competitor of Gaussian, Inc.  The licensee
 of this program is prohibited from giving any competitor of
 Gaussian, Inc. access to this program.  By using this program,
 the user acknowledges that Gaussian, Inc. is engaged in the
 business of creating and licensing software in the field of
 computational chemistry and represents and warrants to the
 licensee that it is not a competitor of Gaussian, Inc. and that
 it will not use this program in any manner prohibited above.
 ---------------------------------------------------------------
  

 Cite this work as:
 Gaussian 09, Revision C.01,
 M. J. Frisch, G. W. Trucks, H. B. Schlegel, G. E. Scuseria, 
 M. A. Robb, J. R. Cheeseman, G. Scalmani, V. Barone, B. Mennucci, 
 G. A. Petersson, H. Nakatsuji, M. Caricato, X. Li, H. P. Hratchian, 
 A. F. Izmaylov, J. Bloino, G. Zheng, J. L. Sonnenberg, M. Hada, 
 M. Ehara, K. Toyota, R. Fukuda, J. Hasegawa, M. Ishida, T. Nakajima, 
 Y. Honda, O. Kitao, H. Nakai, T. Vreven, J. A. Montgomery, Jr., 
 J. E. Peralta, F. Ogliaro, M. Bearpark, J. J. Heyd, E. Brothers, 
 K. N. Kudin, V. N. Staroverov, T. Keith, R. Kobayashi, J. Normand, 
 K. Raghavachari, A. Rendell, J. C. Burant, S. S. Iyengar, J. Tomasi, 
 M. Cossi, N. Rega, J. M. Millam, M. Klene, J. E. Knox, J. B. Cross, 
 V. Bakken, C. Adamo, J. Jaramillo, R. Gomperts, R. E. Stratmann, 
 O. Yazyev, A. J. Austin, R. Cammi, C. Pomelli, J. W. Ochterski, 
 R. L. Martin, K. Morokuma, V. G. Zakrzewski, G. A. Voth, 
 P. Salvador, J. J. Dannenberg, S. Dapprich, A. D. Daniels, 
 O. Farkas, J. B. Foresman, J. V. Ortiz, J. Cioslowski, 
 and D. J. Fox, Gaussian, Inc., Wallingford CT, 2010.
 
 ******************************************
 Gaussian 09:  EM64L-G09RevC.01 23-Sep-2011
                 2-Mar-2021 
 ******************************************
 %chk=cisbut.chk
 -----------------------------------------
 # opt freq b3lyp/6-31g* geom=connectivity
 -----------------------------------------
 1/14=-1,18=20,19=15,26=3,38=1,57=2/1,3;
 2/9=110,12=2,17=6,18=5,40=1/2;
 3/5=1,6=6,7=1,11=2,16=1,25=1,30=1,71=1,74=-5/1,2,3;
 4//1;
 5/5=2,38=5/2;
 6/7=2,8=2,9=2,10=2,28=1/1;
 7//1,2,3,16;
 1/14=-1,18=20,19=15/3(2);
 2/9=110/2;
 99//99;
 2/9=110/2;
 3/5=1,6=6,7=1,11=2,16=1,25=1,30=1,71=1,74=-5/1,2,3;
 4/5=5,16=3/1;
 5/5=2,38=5/2;
 7//1,2,3,16;
 1/14=-1,18=20,19=15/3(-5);
 2/9=110/2;
 6/7=2,8=2,9=2,10=2,19=2,28=1/1;
 99/9=1/99;
 -------------------
 Title Card Required
 -------------------
 Charge =  0 Multiplicity = 1
 Symbolic Z-Matrix:
 C                    -3.39181   1.59136   1.17385 
 H                    -2.85865   1.55073   2.10066 
 H                    -4.46181   1.59136   1.17385 
 C                    -2.71654   1.64281   0. 
 H                    -3.2497    1.68344  -0.92681 
 C                    -1.17654   1.64281   0. 
 H                    -0.64337   1.60219  -0.92681 
 C                    -0.4943    1.69409   1.16982 
 H                    -1.02194   1.73486   2.09978 
 H                     0.57569   1.69382   1.16347 
 

 GradGradGradGradGradGradGradGradGradGradGradGradGradGradGradGradGradGrad
 Berny optimization.
 Initialization pass.
                           ----------------------------
                           !    Initial Parameters    !
                           ! (Angstroms and Degrees)  !
 --------------------------                            --------------------------
 ! Name  Definition              Value          Derivative Info.                !
 --------------------------------------------------------------------------------
 ! R1    R(1,2)                  1.07           estimate D2E/DX2                !
 ! R2    R(1,3)                  1.07           estimate D2E/DX2                !
 ! R3    R(1,4)                  1.3552         estimate D2E/DX2                !
 ! R4    R(4,5)                  1.07           estimate D2E/DX2                !
 ! R5    R(4,6)                  1.54           estimate D2E/DX2                !
 ! R6    R(6,7)                  1.07           estimate D2E/DX2                !
 ! R7    R(6,8)                  1.3552         estimate D2E/DX2                !
 ! R8    R(8,9)                  1.07           estimate D2E/DX2                !
 ! R9    R(8,10)                 1.07           estimate D2E/DX2                !
 ! A1    A(2,1,3)              119.8865         estimate D2E/DX2                !
 ! A2    A(2,1,4)              120.2269         estimate D2E/DX2                !
 ! A3    A(3,1,4)              119.8865         estimate D2E/DX2                !
 ! A4    A(1,4,5)              120.2269         estimate D2E/DX2                !
 ! A5    A(1,4,6)              119.8865         estimate D2E/DX2                !
 ! A6    A(5,4,6)              119.8865         estimate D2E/DX2                !
 ! A7    A(4,6,7)              119.8865         estimate D2E/DX2                !
 ! A8    A(4,6,8)              120.2269         estimate D2E/DX2                !
 ! A9    A(7,6,8)              119.8865         estimate D2E/DX2                !
 ! A10   A(6,8,9)              120.2269         estimate D2E/DX2                !
 ! A11   A(6,8,10)             119.8865         estimate D2E/DX2                !
 ! A12   A(9,8,10)             119.8865         estimate D2E/DX2                !
 ! D1    D(2,1,4,5)            180.0            estimate D2E/DX2                !
 ! D2    D(2,1,4,6)              0.0            estimate D2E/DX2                !
 ! D3    D(3,1,4,5)              0.0            estimate D2E/DX2                !
 ! D4    D(3,1,4,6)            180.0            estimate D2E/DX2                !
 ! D5    D(1,4,6,7)            174.98           estimate D2E/DX2                !
 ! D6    D(1,4,6,8)             -5.02           estimate D2E/DX2                !
 ! D7    D(5,4,6,7)             -5.02           estimate D2E/DX2                !
 ! D8    D(5,4,6,8)            174.98           estimate D2E/DX2                !
 ! D9    D(4,6,8,9)              0.0            estimate D2E/DX2                !
 ! D10   D(4,6,8,10)           180.0            estimate D2E/DX2                !
 ! D11   D(7,6,8,9)            180.0            estimate D2E/DX2                !
 ! D12   D(7,6,8,10)             0.0            estimate D2E/DX2                !
 --------------------------------------------------------------------------------
 Trust Radius=3.00D-01 FncErr=1.00D-07 GrdErr=1.00D-06
 Number of steps in this run=     43 maximum allowed number of steps=    100.
 GradGradGradGradGradGradGradGradGradGradGradGradGradGradGradGradGradGrad

                          Input orientation:                          
 ---------------------------------------------------------------------
 Center     Atomic      Atomic             Coordinates (Angstroms)
 Number     Number       Type             X           Y           Z
 ---------------------------------------------------------------------
      1          6           0       -3.391813    1.591357    1.173850
      2          1           0       -2.858649    1.550729    2.100665
      3          1           0       -4.461813    1.591357    1.173850
      4          6           0       -2.716539    1.642814    0.000000
      5          1           0       -3.249702    1.683441   -0.926815
      6          6           0       -1.176539    1.642814    0.000000
      7          1           0       -0.643375    1.602186   -0.926815
      8          6           0       -0.494295    1.694094    1.169821
      9          1           0       -1.021938    1.734859    2.099784
     10          1           0        0.575686    1.693815    1.163470
 ---------------------------------------------------------------------
                    Distance matrix (angstroms):
                    1          2          3          4          5
     1  C    0.000000
     2  H    1.070000   0.000000
     3  H    1.070000   1.852234   0.000000
     4  C    1.355200   2.107479   2.103938   0.000000
     5  H    2.107479   3.055514   2.427032   1.070000   0.000000
     6  C    2.507591   2.692725   3.489068   1.540000   2.271265
     7  H    3.459309   3.751762   4.358139   2.271265   2.607594
     8  C    2.899341   2.545033   3.968850   2.511867   3.462407
     9  H    2.548383   1.845918   3.565205   2.699859   3.758441
    10  H    3.968835   3.562789   5.038551   3.492135   4.359242
                    6          7          8          9         10
     6  C    0.000000
     7  H    1.070000   0.000000
     8  C    1.355200   2.103938   0.000000
     9  H    2.107479   3.053066   1.070000   0.000000
    10  H    2.103938   2.421527   1.070000   1.852234   0.000000
 Stoichiometry    C4H6
 Framework group  C1[X(C4H6)]
 Deg. of freedom    24
 Full point group                 C1      NOp   1
 Largest Abelian subgroup         C1      NOp   1
 Largest concise Abelian subgroup C1      NOp   1
                         Standard orientation:                         
 ---------------------------------------------------------------------
 Center     Atomic      Atomic             Coordinates (Angstroms)
 Number     Number       Type             X           Y           Z
 ---------------------------------------------------------------------
      1          6           0       -1.448427   -0.548214   -0.016211
      2          1           0       -0.916896   -1.475317   -0.069640
      3          1           0       -2.518112   -0.547645    0.009744
      4          6           0       -0.771483    0.625283    0.018698
      5          1           0       -1.303014    1.552386    0.072127
      6          6           0        0.768064    0.624464   -0.018657
      7          1           0        1.300575    1.550990   -0.072326
      8          6           0        1.450732   -0.545714    0.016210
      9          1           0        0.923742   -1.475392    0.069882
     10          1           0        2.520394   -0.539932   -0.010024
 ---------------------------------------------------------------------
 Rotational constants (GHZ):     19.1380143      6.1181692      4.6390608
 Standard basis: 6-31G(d) (6D, 7F)
 There are    72 symmetry adapted basis functions of A   symmetry.
 Integral buffers will be    131072 words long.
 Raffenetti 2 integral format.
 Two-electron integral symmetry is turned on.
    72 basis functions,   136 primitive gaussians,    72 cartesian basis functions
    15 alpha electrons       15 beta electrons
       nuclear repulsion energy       104.7570355306 Hartrees.
 NAtoms=   10 NActive=   10 NUniq=   10 SFac= 1.00D+00 NAtFMM=   60 NAOKFM=F Big=F
 One-electron integrals computed using PRISM.
 NBasis=    72 RedAO= T  NBF=    72
 NBsUse=    72 1.00D-06 NBFU=    72
 Harris functional with IExCor=  402 diagonalized for initial guess.
 ExpMin= 1.61D-01 ExpMax= 3.05D+03 ExpMxC= 4.57D+02 IAcc=1 IRadAn=         1 AccDes= 0.00D+00
 HarFok:  IExCor=  402 AccDes= 0.00D+00 IRadAn=         1 IDoV= 1
 ScaDFX=  1.000000  1.000000  1.000000  1.000000
 FoFCou: FMM=F IPFlag=           0 FMFlag=      100000 FMFlg1=           0
         NFxFlg=           0 DoJE=T BraDBF=F KetDBF=T FulRan=T
         Omega=  0.000000  0.000000  1.000000  0.000000  0.000000 ICntrl=     500 IOpCl=  0
         NMat0=    1 NMatS0=    1 NMatT0=    0 NMatD0=    1 NMtDS0=    0 NMtDT0=    0
         I1Cent=           4 NGrid=           0.
 Petite list used in FoFCou.
 Initial guess orbital symmetries:
       Occupied  (A) (A) (A) (A) (A) (A) (A) (A) (A) (A) (A) (A)
                 (A) (A) (A)
       Virtual   (A) (A) (A) (A) (A) (A) (A) (A) (A) (A) (A) (A)
                 (A) (A) (A) (A) (A) (A) (A) (A) (A) (A) (A) (A)
                 (A) (A) (A) (A) (A) (A) (A) (A) (A) (A) (A) (A)
                 (A) (A) (A) (A) (A) (A) (A) (A) (A) (A) (A) (A)
                 (A) (A) (A) (A) (A) (A) (A) (A) (A)
 The electronic state of the initial guess is 1-A.
 Requested convergence on RMS density matrix=1.00D-08 within 128 cycles.
 Requested convergence on MAX density matrix=1.00D-06.
 Requested convergence on             energy=1.00D-06.
 No special actions if energy rises.
 Keep R1 ints in memory in canonical form, NReq=4464842.
 Integral accuracy reduced to 1.0D-05 until final iterations.
 Initial convergence to 1.0D-05 achieved.  Increase integral accuracy.
 SCF Done:  E(RB3LYP) =  -155.976542490     A.U. after   13 cycles
             Convg  =    0.2630D-08             -V/T =  2.0104

 **********************************************************************

            Population analysis using the SCF density.

 **********************************************************************

 Orbital symmetries:
       Occupied  (A) (A) (A) (A) (A) (A) (A) (A) (A) (A) (A) (A)
                 (A) (A) (A)
       Virtual   (A) (A) (A) (A) (A) (A) (A) (A) (A) (A) (A) (A)
                 (A) (A) (A) (A) (A) (A) (A) (A) (A) (A) (A) (A)
                 (A) (A) (A) (A) (A) (A) (A) (A) (A) (A) (A) (A)
                 (A) (A) (A) (A) (A) (A) (A) (A) (A) (A) (A) (A)
                 (A) (A) (A) (A) (A) (A) (A) (A) (A)
 The electronic state is 1-A.
 Alpha  occ. eigenvalues --  -10.19561 -10.19533 -10.17899 -10.17883  -0.79333
 Alpha  occ. eigenvalues --   -0.71980  -0.61248  -0.53172  -0.49376  -0.43161
 Alpha  occ. eigenvalues --   -0.41311  -0.36783  -0.34940  -0.30928  -0.22448
 Alpha virt. eigenvalues --   -0.02815   0.08163   0.11498   0.11690   0.15963
 Alpha virt. eigenvalues --    0.18114   0.21130   0.22361   0.29242   0.33108
 Alpha virt. eigenvalues --    0.42971   0.46908   0.53119   0.56020   0.57343
 Alpha virt. eigenvalues --    0.60170   0.61890   0.63630   0.67131   0.67902
 Alpha virt. eigenvalues --    0.68514   0.85182   0.85565   0.89392   0.91647
 Alpha virt. eigenvalues --    0.92413   0.97140   1.00544   1.06488   1.06582
 Alpha virt. eigenvalues --    1.16723   1.25530   1.35370   1.45297   1.47799
 Alpha virt. eigenvalues --    1.50497   1.65102   1.74491   1.74892   1.89730
 Alpha virt. eigenvalues --    1.96954   2.01619   2.13462   2.15234   2.21394
 Alpha virt. eigenvalues --    2.24347   2.29225   2.46696   2.51245   2.56075
 Alpha virt. eigenvalues --    2.63056   2.83114   2.96129   4.05811   4.14965
 Alpha virt. eigenvalues --    4.20434   4.44454
          Condensed to atoms (all electrons):
              1          2          3          4          5          6
     1  C    5.041239   0.365194   0.368459   0.657187  -0.054091  -0.035300
     2  H    0.365194   0.564291  -0.039808  -0.031825   0.006084  -0.017013
     3  H    0.368459  -0.039808   0.556368  -0.026566  -0.006788   0.004429
     4  C    0.657187  -0.031825  -0.026566   4.797032   0.366152   0.419890
     5  H   -0.054091   0.006084  -0.006788   0.366152   0.595754  -0.042202
     6  C   -0.035300  -0.017013   0.004429   0.419890  -0.042202   4.797346
     7  H    0.005013   0.000023  -0.000135  -0.042305  -0.003431   0.365999
     8  C   -0.025157   0.004876   0.000337  -0.035295   0.004983   0.657597
     9  H    0.004791   0.005537  -0.000100  -0.016839   0.000015  -0.031988
    10  H    0.000331  -0.000097  -0.000004   0.004412  -0.000132  -0.026422
              7          8          9         10
     1  C    0.005013  -0.025157   0.004791   0.000331
     2  H    0.000023   0.004876   0.005537  -0.000097
     3  H   -0.000135   0.000337  -0.000100  -0.000004
     4  C   -0.042305  -0.035295  -0.016839   0.004412
     5  H   -0.003431   0.004983   0.000015  -0.000132
     6  C    0.365999   0.657597  -0.031988  -0.026422
     7  H    0.596674  -0.054242   0.006136  -0.006910
     8  C   -0.054242   5.041088   0.365074   0.368579
     9  H    0.006136   0.365074   0.564785  -0.039841
    10  H   -0.006910   0.368579  -0.039841   0.556211
 Mulliken atomic charges:
              1
     1  C   -0.327665
     2  H    0.142737
     3  H    0.143808
     4  C   -0.091843
     5  H    0.133658
     6  C   -0.092337
     7  H    0.133178
     8  C   -0.327840
     9  H    0.142432
    10  H    0.143874
 Sum of Mulliken atomic charges =   0.00000
 Mulliken charges with hydrogens summed into heavy atoms:
              1
     1  C   -0.041120
     4  C    0.041814
     6  C    0.040840
     8  C   -0.041534
 Sum of Mulliken charges with hydrogens summed into heavy atoms =   0.00000
 Electronic spatial extent (au):  <R**2>=            297.7814
 Charge=              0.0000 electrons
 Dipole moment (field-independent basis, Debye):
    X=             -0.0041    Y=              0.1402    Z=              0.0000  Tot=              0.1403
 Quadrupole moment (field-independent basis, Debye-Ang):
   XX=            -22.8060   YY=            -22.3585   ZZ=            -27.9453
   XY=             -0.0043   XZ=             -0.1516   YZ=              0.0000
 Traceless Quadrupole moment (field-independent basis, Debye-Ang):
   XX=              1.5639   YY=              2.0115   ZZ=             -3.5754
   XY=             -0.0043   XZ=             -0.1516   YZ=              0.0000
 Octapole moment (field-independent basis, Debye-Ang**2):
  XXX=              0.0097  YYY=              0.9755  ZZZ=             -0.0002  XYY=             -0.0214
  XXY=              0.7015  XXZ=             -0.0009  XZZ=             -0.0042  YZZ=              0.1706
  YYZ=              0.0010  XYZ=             -0.2666
 Hexadecapole moment (field-independent basis, Debye-Ang**3):
 XXXX=           -243.5374 YYYY=           -102.5546 ZZZZ=            -29.2054 XXXY=              0.0304
 XXXZ=             -0.8449 YYYX=             -0.0439 YYYZ=              0.0011 ZZZX=             -0.1223
 ZZZY=              0.0001 XXYY=            -60.7100 XXZZ=            -54.9370 YYZZ=            -24.1019
 XXYZ=             -0.0003 YYXZ=             -0.2179 ZZXY=             -0.0009
 N-N= 1.047570355306D+02 E-N=-5.699496011942D+02  KE= 1.543698514850D+02
 Calling FoFJK, ICntrl=      2127 FMM=F ISym2X=0 I1Cent= 0 IOpClX= 0 NMat=1 NMatS=1 NMatT=0.
 ***** Axes restored to original set *****
 -------------------------------------------------------------------
 Center     Atomic                   Forces (Hartrees/Bohr)
 Number     Number              X              Y              Z
 -------------------------------------------------------------------
      1        6           0.007846997    0.001203692   -0.035316171
      2        1          -0.002434763   -0.001371617    0.010972299
      3        1          -0.011202459    0.000204148    0.004074957
      4        6           0.032156051   -0.001926573    0.032532728
      5        1          -0.003206468    0.000207941   -0.011832411
      6        6          -0.031117024    0.001920420    0.031541097
      7        1           0.003005609   -0.000217332   -0.012092173
      8        6          -0.008741150   -0.001185699   -0.034888589
      9        1           0.002520055    0.001377267    0.011061487
     10        1           0.011173154   -0.000212245    0.003946776
 -------------------------------------------------------------------
 Cartesian Forces:  Max     0.035316171 RMS     0.015827427

 GradGradGradGradGradGradGradGradGradGradGradGradGradGradGradGradGradGrad
 Berny optimization.
 Internal  Forces:  Max     0.032669473 RMS     0.012347117
 Search for a local minimum.
 Step number   1 out of a maximum of   43
 All quantities printed in internal units (Hartrees-Bohrs-Radians)
 Mixed Optimization -- RFO/linear search
 Second derivative matrix not updated -- first step.
 ITU=  0
     Eigenvalues ---    0.00237   0.01459   0.01463   0.02681   0.02681
     Eigenvalues ---    0.02681   0.02681   0.16000   0.16000   0.16000
     Eigenvalues ---    0.16000   0.16000   0.16000   0.22000   0.22000
     Eigenvalues ---    0.28519   0.37230   0.37230   0.37230   0.37230
     Eigenvalues ---    0.37230   0.37230   0.53930   0.53930
 RFO step:  Lambda=-1.90004470D-02 EMin= 2.36824121D-03
 Linear search not attempted -- first point.
 Iteration  1 RMS(Cart)=  0.18274936 RMS(Int)=  0.01010223
 Iteration  2 RMS(Cart)=  0.01606258 RMS(Int)=  0.00009484
 Iteration  3 RMS(Cart)=  0.00017189 RMS(Int)=  0.00004375
 Iteration  4 RMS(Cart)=  0.00000001 RMS(Int)=  0.00004375
 Variable       Old X    -DE/DX   Delta X   Delta X   Delta X     New X
                                 (Linear)    (Quad)   (Total)
    R1        2.02201   0.00834   0.00000   0.02132   0.02132   2.04333
    R2        2.02201   0.01120   0.00000   0.02863   0.02863   2.05064
    R3        2.56096  -0.01467   0.00000  -0.02628  -0.02628   2.53468
    R4        2.02201   0.01185   0.00000   0.03030   0.03030   2.05230
    R5        2.91018  -0.02316   0.00000  -0.07614  -0.07614   2.83404
    R6        2.02201   0.01198   0.00000   0.03062   0.03062   2.05262
    R7        2.56096  -0.01467   0.00000  -0.02627  -0.02627   2.53468
    R8        2.02201   0.00842   0.00000   0.02153   0.02153   2.04353
    R9        2.02201   0.01115   0.00000   0.02849   0.02849   2.05050
    A1        2.09241  -0.00786   0.00000  -0.04392  -0.04394   2.04848
    A2        2.09836   0.00751   0.00000   0.04196   0.04195   2.14030
    A3        2.09241   0.00035   0.00000   0.00197   0.00195   2.09437
    A4        2.09836  -0.01319   0.00000  -0.05075  -0.05078   2.04758
    A5        2.09241   0.03267   0.00000   0.13669   0.13667   2.22908
    A6        2.09241  -0.01948   0.00000  -0.08594  -0.08596   2.00645
    A7        2.09241  -0.01927   0.00000  -0.08547  -0.08549   2.00692
    A8        2.09836   0.03163   0.00000   0.13233   0.13231   2.23066
    A9        2.09241  -0.01236   0.00000  -0.04686  -0.04688   2.04553
   A10        2.09836   0.00764   0.00000   0.04271   0.04269   2.14105
   A11        2.09241   0.00022   0.00000   0.00124   0.00123   2.09364
   A12        2.09241  -0.00787   0.00000  -0.04395  -0.04396   2.04845
    D1        3.14159  -0.00101   0.00000  -0.02378  -0.02384   3.11775
    D2        0.00000  -0.00055   0.00000  -0.01026  -0.01020  -0.01020
    D3        0.00000  -0.00056   0.00000  -0.01392  -0.01398  -0.01398
    D4        3.14159  -0.00010   0.00000  -0.00040  -0.00034   3.14125
    D5        3.05398  -0.00073   0.00000  -0.03433  -0.03434   3.01964
    D6       -0.08762  -0.00119   0.00000  -0.04792  -0.04780  -0.13542
    D7       -0.08762  -0.00028   0.00000  -0.02085  -0.02097  -0.10859
    D8        3.05398  -0.00074   0.00000  -0.03444  -0.03444   3.01954
    D9        0.00000  -0.00055   0.00000  -0.01026  -0.01020  -0.01020
   D10        3.14159  -0.00010   0.00000  -0.00041  -0.00035   3.14125
   D11       -3.14159  -0.00101   0.00000  -0.02385  -0.02392   3.11768
   D12        0.00000  -0.00056   0.00000  -0.01400  -0.01407  -0.01407
         Item               Value     Threshold  Converged?
 Maximum Force            0.032669     0.000450     NO 
 RMS     Force            0.012347     0.000300     NO 
 Maximum Displacement     0.551165     0.001800     NO 
 RMS     Displacement     0.192213     0.001200     NO 
 Predicted change in Energy=-1.027522D-02
 GradGradGradGradGradGradGradGradGradGradGradGradGradGradGradGradGradGrad

                          Input orientation:                          
 ---------------------------------------------------------------------
 Center     Atomic      Atomic             Coordinates (Angstroms)
 Number     Number       Type             X           Y           Z
 ---------------------------------------------------------------------
      1          6           0       -3.514802    1.577111    1.151217
      2          1           0       -3.150313    1.497550    2.166102
      3          1           0       -4.590240    1.591474    1.007075
      4          6           0       -2.695206    1.645686    0.091677
      5          1           0       -3.154447    1.700934   -0.890926
      6          6           0       -1.195508    1.639850    0.089937
      7          1           0       -0.738017    1.584669   -0.893673
      8          6           0       -0.371779    1.708363    1.146277
      9          1           0       -0.731574    1.788001    2.162945
     10          1           0        0.702908    1.693826    0.997179
 ---------------------------------------------------------------------
                    Distance matrix (angstroms):
                    1          2          3          4          5
     1  C    0.000000
     2  H    1.081283   0.000000
     3  H    1.085149   1.850825   0.000000
     4  C    1.341293   2.128921   2.105243   0.000000
     5  H    2.077387   3.063789   2.382413   1.086032   0.000000
     6  C    2.551348   2.855166   3.516773   1.499710   2.191636
     7  H    3.448503   3.897305   4.295639   2.192083   2.419227
     8  C    3.145767   2.967278   4.222376   2.552337   3.448695
     9  H    2.968910   2.436118   4.032860   2.857665   3.899233
    10  H    4.222136   4.031404   5.294147   3.517020   4.294669
                    6          7          8          9         10
     6  C    0.000000
     7  H    1.086201   0.000000
     8  C    1.341297   2.076253   0.000000
     9  H    2.129447   3.063381   1.081392   0.000000
    10  H    2.104753   2.379812   1.085078   1.850843   0.000000
 Stoichiometry    C4H6
 Framework group  C1[X(C4H6)]
 Deg. of freedom    24
 Full point group                 C1      NOp   1
 Largest Abelian subgroup         C1      NOp   1
 Largest concise Abelian subgroup C1      NOp   1
                         Standard orientation:                         
 ---------------------------------------------------------------------
 Center     Atomic      Atomic             Coordinates (Angstroms)
 Number     Number       Type             X           Y           Z
 ---------------------------------------------------------------------
      1          6           0       -1.572616   -0.501488   -0.018261
      2          1           0       -1.212164   -1.516905   -0.108682
      3          1           0       -2.646922   -0.355780    0.028477
      4          6           0       -0.749786    0.556861    0.025510
      5          1           0       -1.205726    1.540134    0.094487
      6          6           0        0.749057    0.556417   -0.025495
      7          1           0        1.206107    1.539359   -0.094510
      8          6           0        1.572939   -0.501118    0.018262
      9          1           0        1.214228   -1.517258    0.108783
     10          1           0        2.646916   -0.353585   -0.028652
 ---------------------------------------------------------------------
 Rotational constants (GHZ):     21.7854986      5.4380819      4.3568139
 Standard basis: 6-31G(d) (6D, 7F)
 There are    72 symmetry adapted basis functions of A   symmetry.
 Integral buffers will be    131072 words long.
 Raffenetti 2 integral format.
 Two-electron integral symmetry is turned on.
    72 basis functions,   136 primitive gaussians,    72 cartesian basis functions
    15 alpha electrons       15 beta electrons
       nuclear repulsion energy       103.8118186017 Hartrees.
 NAtoms=   10 NActive=   10 NUniq=   10 SFac= 1.00D+00 NAtFMM=   60 NAOKFM=F Big=F
 One-electron integrals computed using PRISM.
 NBasis=    72 RedAO= T  NBF=    72
 NBsUse=    72 1.00D-06 NBFU=    72
 Initial guess read from the read-write file.
 B after Tr=     0.000000    0.000000    0.000000
         Rot=    1.000000    0.000000    0.000000    0.000000 Ang=   0.00 deg.
 Initial guess orbital symmetries:
       Occupied  (A) (A) (A) (A) (A) (A) (A) (A) (A) (A) (A) (A)
                 (A) (A) (A)
       Virtual   (A) (A) (A) (A) (A) (A) (A) (A) (A) (A) (A) (A)
                 (A) (A) (A) (A) (A) (A) (A) (A) (A) (A) (A) (A)
                 (A) (A) (A) (A) (A) (A) (A) (A) (A) (A) (A) (A)
                 (A) (A) (A) (A) (A) (A) (A) (A) (A) (A) (A) (A)
                 (A) (A) (A) (A) (A) (A) (A) (A) (A)
 Harris functional with IExCor=  402 diagonalized for initial guess.
 ExpMin= 1.61D-01 ExpMax= 3.05D+03 ExpMxC= 4.57D+02 IAcc=1 IRadAn=         1 AccDes= 0.00D+00
 HarFok:  IExCor=  402 AccDes= 0.00D+00 IRadAn=         1 IDoV= 1
 ScaDFX=  1.000000  1.000000  1.000000  1.000000
 FoFCou: FMM=F IPFlag=           0 FMFlag=      100000 FMFlg1=           0
         NFxFlg=           0 DoJE=T BraDBF=F KetDBF=T FulRan=T
         Omega=  0.000000  0.000000  1.000000  0.000000  0.000000 ICntrl=     500 IOpCl=  0
         NMat0=    1 NMatS0=    1 NMatT0=    0 NMatD0=    1 NMtDS0=    0 NMtDT0=    0
         I1Cent=           4 NGrid=           0.
 Petite list used in FoFCou.
 Requested convergence on RMS density matrix=1.00D-08 within 128 cycles.
 Requested convergence on MAX density matrix=1.00D-06.
 Requested convergence on             energy=1.00D-06.
 No special actions if energy rises.
 Keep R1 ints in memory in canonical form, NReq=4464842.
 Integral accuracy reduced to 1.0D-05 until final iterations.
 Initial convergence to 1.0D-05 achieved.  Increase integral accuracy.
 SCF Done:  E(RB3LYP) =  -155.985294049     A.U. after   13 cycles
             Convg  =    0.3738D-08             -V/T =  2.0105
 Calling FoFJK, ICntrl=      2127 FMM=F ISym2X=0 I1Cent= 0 IOpClX= 0 NMat=1 NMatS=1 NMatT=0.
 ***** Axes restored to original set *****
 -------------------------------------------------------------------
 Center     Atomic                   Forces (Hartrees/Bohr)
 Number     Number              X              Y              Z
 -------------------------------------------------------------------
      1        6           0.002725316    0.000085056   -0.006560814
      2        1           0.000737479   -0.000167194    0.003993142
      3        1          -0.000733855    0.000016737    0.001775676
      4        6           0.014735196   -0.000566916    0.003610382
      5        1           0.000568150    0.000535792   -0.002777663
      6        6          -0.014467640    0.000565105    0.003390585
      7        1          -0.000741506   -0.000539050   -0.002760245
      8        6          -0.002897859   -0.000075751   -0.006394686
      9        1          -0.000718316    0.000160498    0.003923850
     10        1           0.000793035   -0.000014277    0.001799773
 -------------------------------------------------------------------
 Cartesian Forces:  Max     0.014735196 RMS     0.004502535

 GradGradGradGradGradGradGradGradGradGradGradGradGradGradGradGradGradGrad
 Berny optimization.
 Using GEDIIS/GDIIS optimizer.
 Internal  Forces:  Max     0.018032884 RMS     0.003659768
 Search for a local minimum.
 Step number   2 out of a maximum of   43
 All quantities printed in internal units (Hartrees-Bohrs-Radians)
 Mixed Optimization -- RFO/linear search
 Update second derivatives using D2CorX and points    1    2
 DE= -8.75D-03 DEPred=-1.03D-02 R= 8.52D-01
 SS=  1.41D+00  RLast= 2.86D-01 DXNew= 5.0454D-01 8.5657D-01
 Trust test= 8.52D-01 RLast= 2.86D-01 DXMaxT set to 5.05D-01
 ITU=  1  0
 Use linear search instead of GDIIS.
     Eigenvalues ---    0.00238   0.01483   0.01487   0.02681   0.02681
     Eigenvalues ---    0.02682   0.02690   0.15182   0.15999   0.16000
     Eigenvalues ---    0.16000   0.16000   0.16152   0.21948   0.22084
     Eigenvalues ---    0.31155   0.36483   0.37230   0.37230   0.37230
     Eigenvalues ---    0.37230   0.37835   0.53500   0.53930
 RFO step:  Lambda=-1.85396964D-03 EMin= 2.38450970D-03
 Quartic linear search produced a step of  0.06096.
 Iteration  1 RMS(Cart)=  0.04835719 RMS(Int)=  0.00087270
 Iteration  2 RMS(Cart)=  0.00105228 RMS(Int)=  0.00001317
 Iteration  3 RMS(Cart)=  0.00000047 RMS(Int)=  0.00001317
 Variable       Old X    -DE/DX   Delta X   Delta X   Delta X     New X
                                 (Linear)    (Quad)   (Total)
    R1        2.04333   0.00401   0.00130   0.01210   0.01340   2.05673
    R2        2.05064   0.00049   0.00175   0.00240   0.00414   2.05478
    R3        2.53468  -0.00229  -0.00160  -0.00532  -0.00693   2.52775
    R4        2.05230   0.00230   0.00185   0.00758   0.00942   2.06173
    R5        2.83404  -0.01803  -0.00464  -0.06946  -0.07410   2.75994
    R6        2.05262   0.00221   0.00187   0.00735   0.00921   2.06183
    R7        2.53468  -0.00226  -0.00160  -0.00526  -0.00686   2.52782
    R8        2.04353   0.00394   0.00131   0.01191   0.01323   2.05676
    R9        2.05050   0.00054   0.00174   0.00252   0.00426   2.05476
    A1        2.04848  -0.00171  -0.00268  -0.01330  -0.01599   2.03249
    A2        2.14030  -0.00038   0.00256  -0.00042   0.00213   2.14243
    A3        2.09437   0.00209   0.00012   0.01378   0.01389   2.10826
    A4        2.04758   0.00341  -0.00310   0.01736   0.01426   2.06184
    A5        2.22908  -0.00332   0.00833  -0.01012  -0.00179   2.22729
    A6        2.00645  -0.00008  -0.00524  -0.00717  -0.01242   1.99403
    A7        2.00692  -0.00012  -0.00521  -0.00763  -0.01285   1.99407
    A8        2.23066  -0.00354   0.00807  -0.01133  -0.00327   2.22739
    A9        2.04553   0.00366  -0.00286   0.01903   0.01617   2.06170
   A10        2.14105  -0.00043   0.00260  -0.00075   0.00185   2.14290
   A11        2.09364   0.00215   0.00007   0.01416   0.01423   2.10787
   A12        2.04845  -0.00172  -0.00268  -0.01335  -0.01604   2.03242
    D1        3.11775   0.00020  -0.00145   0.00534   0.00391   3.12166
    D2       -0.01020   0.00005  -0.00062  -0.00154  -0.00218  -0.01238
    D3       -0.01398  -0.00005  -0.00085  -0.00217  -0.00300  -0.01698
    D4        3.14125  -0.00020  -0.00002  -0.00905  -0.00909   3.13217
    D5        3.01964  -0.00018  -0.00209  -0.07632  -0.07842   2.94122
    D6       -0.13542  -0.00001  -0.00291  -0.06927  -0.07222  -0.20764
    D7       -0.10859  -0.00035  -0.00128  -0.08323  -0.08448  -0.19306
    D8        3.01954  -0.00018  -0.00210  -0.07618  -0.07828   2.94126
    D9       -0.01020   0.00005  -0.00062  -0.00156  -0.00220  -0.01239
   D10        3.14125  -0.00019  -0.00002  -0.00909  -0.00913   3.13212
   D11        3.11768   0.00020  -0.00146   0.00545   0.00401   3.12168
   D12       -0.01407  -0.00005  -0.00086  -0.00209  -0.00293  -0.01699
         Item               Value     Threshold  Converged?
 Maximum Force            0.018033     0.000450     NO 
 RMS     Force            0.003660     0.000300     NO 
 Maximum Displacement     0.115731     0.001800     NO 
 RMS     Displacement     0.048390     0.001200     NO 
 Predicted change in Energy=-8.933653D-04
 GradGradGradGradGradGradGradGradGradGradGradGradGradGradGradGradGradGrad

                          Input orientation:                          
 ---------------------------------------------------------------------
 Center     Atomic      Atomic             Coordinates (Angstroms)
 Number     Number       Type             X           Y           Z
 ---------------------------------------------------------------------
      1          6           0       -3.491644    1.560266    1.146705
      2          1           0       -3.126510    1.436308    2.164482
      3          1           0       -4.570902    1.601462    1.020942
      4          6           0       -2.675105    1.655664    0.091523
      5          1           0       -3.123023    1.759438   -0.897882
      6          6           0       -1.214839    1.629880    0.089187
      7          1           0       -0.770027    1.526104   -0.901682
      8          6           0       -0.394800    1.725231    1.141703
      9          1           0       -0.756101    1.849173    2.160866
     10          1           0        0.683975    1.683940    1.011966
 ---------------------------------------------------------------------
                    Distance matrix (angstroms):
                    1          2          3          4          5
     1  C    0.000000
     2  H    1.088374   0.000000
     3  H    1.087341   1.849656   0.000000
     4  C    1.337627   2.132849   2.112061   0.000000
     5  H    2.087076   3.079367   2.408982   1.091018   0.000000
     6  C    2.511381   2.828217   3.483122   1.460496   2.152267
     7  H    3.406502   3.868131   4.260142   2.152339   2.364539
     8  C    3.101238   2.931176   4.179680   2.511475   3.406504
     9  H    2.931754   2.406098   3.989172   2.828816   3.868631
    10  H    4.179623   3.988661   5.255532   3.483021   4.259865
                    6          7          8          9         10
     6  C    0.000000
     7  H    1.091076   0.000000
     8  C    1.337664   2.087071   0.000000
     9  H    2.133163   3.079572   1.088391   0.000000
    10  H    2.111857   2.408544   1.087333   1.849620   0.000000
 Stoichiometry    C4H6
 Framework group  C1[X(C4H6)]
 Deg. of freedom    24
 Full point group                 C1      NOp   1
 Largest Abelian subgroup         C1      NOp   1
 Largest concise Abelian subgroup C1      NOp   1
                         Standard orientation:                         
 ---------------------------------------------------------------------
 Center     Atomic      Atomic             Coordinates (Angstroms)
 Number     Number       Type             X           Y           Z
 ---------------------------------------------------------------------
      1          6           0       -1.550328   -0.498432   -0.029789
      2          1           0       -1.191259   -1.516798   -0.166017
      3          1           0       -2.627357   -0.370929    0.048067
      4          6           0       -0.729320    0.555434    0.037717
      5          1           0       -1.171857    1.545561    0.156589
      6          6           0        0.729228    0.555418   -0.037700
      7          1           0        1.171848    1.545566   -0.156609
      8          6           0        1.550338   -0.498417    0.029791
      9          1           0        1.191820   -1.516995    0.166018
     10          1           0        2.627294   -0.370420   -0.048163
 ---------------------------------------------------------------------
 Rotational constants (GHZ):     21.7348257      5.6055157      4.4691993
 Standard basis: 6-31G(d) (6D, 7F)
 There are    72 symmetry adapted basis functions of A   symmetry.
 Integral buffers will be    131072 words long.
 Raffenetti 2 integral format.
 Two-electron integral symmetry is turned on.
    72 basis functions,   136 primitive gaussians,    72 cartesian basis functions
    15 alpha electrons       15 beta electrons
       nuclear repulsion energy       104.6173761044 Hartrees.
 NAtoms=   10 NActive=   10 NUniq=   10 SFac= 1.00D+00 NAtFMM=   60 NAOKFM=F Big=F
 One-electron integrals computed using PRISM.
 NBasis=    72 RedAO= T  NBF=    72
 NBsUse=    72 1.00D-06 NBFU=    72
 Initial guess read from the read-write file.
 B after Tr=     0.000000    0.000000    0.000000
         Rot=    1.000000    0.000000    0.000000    0.000000 Ang=   0.00 deg.
 Initial guess orbital symmetries:
       Occupied  (A) (A) (A) (A) (A) (A) (A) (A) (A) (A) (A) (A)
                 (A) (A) (A)
       Virtual   (A) (A) (A) (A) (A) (A) (A) (A) (A) (A) (A) (A)
                 (A) (A) (A) (A) (A) (A) (A) (A) (A) (A) (A) (A)
                 (A) (A) (A) (A) (A) (A) (A) (A) (A) (A) (A) (A)
                 (A) (A) (A) (A) (A) (A) (A) (A) (A) (A) (A) (A)
                 (A) (A) (A) (A) (A) (A) (A) (A) (A)
 Harris functional with IExCor=  402 diagonalized for initial guess.
 ExpMin= 1.61D-01 ExpMax= 3.05D+03 ExpMxC= 4.57D+02 IAcc=1 IRadAn=         1 AccDes= 0.00D+00
 HarFok:  IExCor=  402 AccDes= 0.00D+00 IRadAn=         1 IDoV= 1
 ScaDFX=  1.000000  1.000000  1.000000  1.000000
 FoFCou: FMM=F IPFlag=           0 FMFlag=      100000 FMFlg1=           0
         NFxFlg=           0 DoJE=T BraDBF=F KetDBF=T FulRan=T
         Omega=  0.000000  0.000000  1.000000  0.000000  0.000000 ICntrl=     500 IOpCl=  0
         NMat0=    1 NMatS0=    1 NMatT0=    0 NMatD0=    1 NMtDS0=    0 NMtDT0=    0
         I1Cent=           4 NGrid=           0.
 Petite list used in FoFCou.
 Requested convergence on RMS density matrix=1.00D-08 within 128 cycles.
 Requested convergence on MAX density matrix=1.00D-06.
 Requested convergence on             energy=1.00D-06.
 No special actions if energy rises.
 Keep R1 ints in memory in canonical form, NReq=4464842.
 Integral accuracy reduced to 1.0D-05 until final iterations.
 Initial convergence to 1.0D-05 achieved.  Increase integral accuracy.
 SCF Done:  E(RB3LYP) =  -155.985965996     A.U. after   11 cycles
             Convg  =    0.5113D-08             -V/T =  2.0102
 Calling FoFJK, ICntrl=      2127 FMM=F ISym2X=0 I1Cent= 0 IOpClX= 0 NMat=1 NMatS=1 NMatT=0.
 ***** Axes restored to original set *****
 -------------------------------------------------------------------
 Center     Atomic                   Forces (Hartrees/Bohr)
 Number     Number              X              Y              Z
 -------------------------------------------------------------------
      1        6          -0.002960274   -0.000167678    0.002073488
      2        1           0.000059946   -0.000254638   -0.000894387
      3        1           0.000836806   -0.000009733    0.000717069
      4        6          -0.004028286    0.001050449   -0.002919934
      5        1          -0.000930213   -0.000167488    0.001034626
      6        6           0.004037876   -0.001048803   -0.002911154
      7        1           0.000911501    0.000171885    0.001065475
      8        6           0.002979806    0.000160454    0.002017359
      9        1          -0.000086780    0.000253007   -0.000919991
     10        1          -0.000820382    0.000012544    0.000737448
 -------------------------------------------------------------------
 Cartesian Forces:  Max     0.004037876 RMS     0.001692911

 GradGradGradGradGradGradGradGradGradGradGradGradGradGradGradGradGradGrad
 Berny optimization.
 Using GEDIIS/GDIIS optimizer.
 Internal  Forces:  Max     0.007028407 RMS     0.001618685
 Search for a local minimum.
 Step number   3 out of a maximum of   43
 All quantities printed in internal units (Hartrees-Bohrs-Radians)
 Mixed Optimization -- RFO/linear search
 Update second derivatives using D2CorX and points    1    2    3
 DE= -6.72D-04 DEPred=-8.93D-04 R= 7.52D-01
 SS=  1.41D+00  RLast= 1.81D-01 DXNew= 8.4853D-01 5.4265D-01
 Trust test= 7.52D-01 RLast= 1.81D-01 DXMaxT set to 5.43D-01
 ITU=  1  1  0
 Use linear search instead of GDIIS.
     Eigenvalues ---    0.00218   0.01500   0.01508   0.02668   0.02681
     Eigenvalues ---    0.02681   0.02691   0.14828   0.16000   0.16000
     Eigenvalues ---    0.16000   0.16132   0.16535   0.21997   0.26209
     Eigenvalues ---    0.35394   0.36358   0.37230   0.37230   0.37230
     Eigenvalues ---    0.37328   0.37821   0.53930   0.55476
 RFO step:  Lambda=-2.90634145D-04 EMin= 2.17893082D-03
 Quartic linear search produced a step of -0.21596.
 Iteration  1 RMS(Cart)=  0.06663767 RMS(Int)=  0.00207623
 Iteration  2 RMS(Cart)=  0.00303649 RMS(Int)=  0.00000433
 Iteration  3 RMS(Cart)=  0.00000397 RMS(Int)=  0.00000377
 Iteration  4 RMS(Cart)=  0.00000000 RMS(Int)=  0.00000377
 Variable       Old X    -DE/DX   Delta X   Delta X   Delta X     New X
                                 (Linear)    (Quad)   (Total)
    R1        2.05673  -0.00079  -0.00289   0.00174  -0.00115   2.05558
    R2        2.05478  -0.00091  -0.00089  -0.00120  -0.00209   2.05269
    R3        2.52775   0.00279   0.00150   0.00240   0.00389   2.53164
    R4        2.06173  -0.00057  -0.00204   0.00091  -0.00113   2.06060
    R5        2.75994   0.00703   0.01600  -0.00096   0.01505   2.77498
    R6        2.06183  -0.00061  -0.00199   0.00076  -0.00123   2.06061
    R7        2.52782   0.00274   0.00148   0.00236   0.00384   2.53166
    R8        2.05676  -0.00080  -0.00286   0.00166  -0.00120   2.05556
    R9        2.05476  -0.00090  -0.00092  -0.00114  -0.00206   2.05270
    A1        2.03249  -0.00017   0.00345  -0.00451  -0.00106   2.03144
    A2        2.14243  -0.00090  -0.00046  -0.00432  -0.00479   2.13764
    A3        2.10826   0.00108  -0.00300   0.00882   0.00582   2.11408
    A4        2.06184  -0.00060  -0.00308   0.00124  -0.00184   2.05999
    A5        2.22729  -0.00144   0.00039  -0.00781  -0.00742   2.21987
    A6        1.99403   0.00204   0.00268   0.00653   0.00921   2.00324
    A7        1.99407   0.00203   0.00277   0.00638   0.00915   2.00322
    A8        2.22739  -0.00144   0.00071  -0.00815  -0.00745   2.21994
    A9        2.06170  -0.00059  -0.00349   0.00174  -0.00176   2.05994
   A10        2.14290  -0.00096  -0.00040  -0.00467  -0.00507   2.13782
   A11        2.10787   0.00113  -0.00307   0.00914   0.00607   2.11394
   A12        2.03242  -0.00017   0.00346  -0.00448  -0.00102   2.03139
    D1        3.12166  -0.00038  -0.00084  -0.01052  -0.01136   3.11030
    D2       -0.01238  -0.00023   0.00047  -0.00505  -0.00458  -0.01697
    D3       -0.01698  -0.00015   0.00065  -0.00664  -0.00599  -0.02297
    D4        3.13217   0.00000   0.00196  -0.00117   0.00079   3.13295
    D5        2.94122  -0.00028   0.01693  -0.13794  -0.12101   2.82022
    D6       -0.20764  -0.00044   0.01560  -0.14325  -0.12767  -0.33531
    D7       -0.19306  -0.00012   0.01824  -0.13264  -0.11438  -0.30745
    D8        2.94126  -0.00028   0.01691  -0.13795  -0.12104   2.82021
    D9       -0.01239  -0.00023   0.00047  -0.00504  -0.00457  -0.01697
   D10        3.13212   0.00000   0.00197  -0.00113   0.00083   3.13295
   D11        3.12168  -0.00038  -0.00087  -0.01052  -0.01138   3.11030
   D12       -0.01699  -0.00015   0.00063  -0.00661  -0.00598  -0.02297
         Item               Value     Threshold  Converged?
 Maximum Force            0.007028     0.000450     NO 
 RMS     Force            0.001619     0.000300     NO 
 Maximum Displacement     0.193068     0.001800     NO 
 RMS     Displacement     0.066614     0.001200     NO 
 Predicted change in Energy=-1.754384D-04
 GradGradGradGradGradGradGradGradGradGradGradGradGradGradGradGradGradGrad

                          Input orientation:                          
 ---------------------------------------------------------------------
 Center     Atomic      Atomic             Coordinates (Angstroms)
 Number     Number       Type             X           Y           Z
 ---------------------------------------------------------------------
      1          6           0       -3.493878    1.537202    1.143668
      2          1           0       -3.123489    1.334141    2.146072
      3          1           0       -4.571739    1.614847    1.033695
      4          6           0       -2.678367    1.677170    0.090051
      5          1           0       -3.129342    1.850029   -0.887579
      6          6           0       -1.211523    1.608359    0.087661
      7          1           0       -0.763753    1.435532   -0.891453
      8          6           0       -0.392501    1.748279    1.138570
      9          1           0       -0.759363    1.951307    2.142267
     10          1           0        0.684978    1.670598    1.024858
 ---------------------------------------------------------------------
                    Distance matrix (angstroms):
                    1          2          3          4          5
     1  C    0.000000
     2  H    1.087766   0.000000
     3  H    1.086235   1.847595   0.000000
     4  C    1.339687   2.131438   2.116414   0.000000
     5  H    2.087274   3.077209   2.413941   1.090421   0.000000
     6  C    2.515822   2.822741   3.490855   1.468459   2.165070
     7  H    3.406705   3.847751   4.270726   2.165060   2.401632
     8  C    3.108555   2.940215   4.182682   2.515875   3.406748
     9  H    2.940452   2.443359   3.984514   2.822999   3.847990
    10  H    4.182672   3.984312   5.257019   3.490844   4.270673
                    6          7          8          9         10
     6  C    0.000000
     7  H    1.090427   0.000000
     8  C    1.339695   2.087254   0.000000
     9  H    2.131542   3.077255   1.087758   0.000000
    10  H    2.116347   2.413778   1.086244   1.847571   0.000000
 Stoichiometry    C4H6
 Framework group  C1[X(C4H6)]
 Deg. of freedom    24
 Full point group                 C1      NOp   1
 Largest Abelian subgroup         C1      NOp   1
 Largest concise Abelian subgroup C1      NOp   1
                         Standard orientation:                         
 ---------------------------------------------------------------------
 Center     Atomic      Atomic             Coordinates (Angstroms)
 Number     Number       Type             X           Y           Z
 ---------------------------------------------------------------------
      1          6           0       -1.553556   -0.496879   -0.047126
      2          1           0       -1.192709   -1.499892   -0.263894
      3          1           0       -2.627551   -0.385138    0.071004
      4          6           0       -0.731633    0.555404    0.061975
      5          1           0       -1.174187    1.533775    0.251596
      6          6           0        0.731585    0.555389   -0.061970
      7          1           0        1.174138    1.533765   -0.251601
      8          6           0        1.553570   -0.496856    0.047128
      9          1           0        1.192965   -1.499947    0.263897
     10          1           0        2.627549   -0.384912   -0.071043
 ---------------------------------------------------------------------
 Rotational constants (GHZ):     21.6743722      5.5684222      4.4632903
 Standard basis: 6-31G(d) (6D, 7F)
 There are    72 symmetry adapted basis functions of A   symmetry.
 Integral buffers will be    131072 words long.
 Raffenetti 2 integral format.
 Two-electron integral symmetry is turned on.
    72 basis functions,   136 primitive gaussians,    72 cartesian basis functions
    15 alpha electrons       15 beta electrons
       nuclear repulsion energy       104.4396987689 Hartrees.
 NAtoms=   10 NActive=   10 NUniq=   10 SFac= 1.00D+00 NAtFMM=   60 NAOKFM=F Big=F
 One-electron integrals computed using PRISM.
 NBasis=    72 RedAO= T  NBF=    72
 NBsUse=    72 1.00D-06 NBFU=    72
 Initial guess read from the read-write file.
 B after Tr=     0.000000    0.000000    0.000000
         Rot=    1.000000    0.000000    0.000000    0.000000 Ang=   0.00 deg.
 Initial guess orbital symmetries:
       Occupied  (A) (A) (A) (A) (A) (A) (A) (A) (A) (A) (A) (A)
                 (A) (A) (A)
       Virtual   (A) (A) (A) (A) (A) (A) (A) (A) (A) (A) (A) (A)
                 (A) (A) (A) (A) (A) (A) (A) (A) (A) (A) (A) (A)
                 (A) (A) (A) (A) (A) (A) (A) (A) (A) (A) (A) (A)
                 (A) (A) (A) (A) (A) (A) (A) (A) (A) (A) (A) (A)
                 (A) (A) (A) (A) (A) (A) (A) (A) (A)
 Harris functional with IExCor=  402 diagonalized for initial guess.
 ExpMin= 1.61D-01 ExpMax= 3.05D+03 ExpMxC= 4.57D+02 IAcc=1 IRadAn=         1 AccDes= 0.00D+00
 HarFok:  IExCor=  402 AccDes= 0.00D+00 IRadAn=         1 IDoV= 1
 ScaDFX=  1.000000  1.000000  1.000000  1.000000
 FoFCou: FMM=F IPFlag=           0 FMFlag=      100000 FMFlg1=           0
         NFxFlg=           0 DoJE=T BraDBF=F KetDBF=T FulRan=T
         Omega=  0.000000  0.000000  1.000000  0.000000  0.000000 ICntrl=     500 IOpCl=  0
         NMat0=    1 NMatS0=    1 NMatT0=    0 NMatD0=    1 NMtDS0=    0 NMtDT0=    0
         I1Cent=           4 NGrid=           0.
 Petite list used in FoFCou.
 Requested convergence on RMS density matrix=1.00D-08 within 128 cycles.
 Requested convergence on MAX density matrix=1.00D-06.
 Requested convergence on             energy=1.00D-06.
 No special actions if energy rises.
 Keep R1 ints in memory in canonical form, NReq=4464842.
 Integral accuracy reduced to 1.0D-05 until final iterations.
 Initial convergence to 1.0D-05 achieved.  Increase integral accuracy.
 SCF Done:  E(RB3LYP) =  -155.986262354     A.U. after   11 cycles
             Convg  =    0.3337D-08             -V/T =  2.0103
 Calling FoFJK, ICntrl=      2127 FMM=F ISym2X=0 I1Cent= 0 IOpClX= 0 NMat=1 NMatS=1 NMatT=0.
 ***** Axes restored to original set *****
 -------------------------------------------------------------------
 Center     Atomic                   Forces (Hartrees/Bohr)
 Number     Number              X              Y              Z
 -------------------------------------------------------------------
      1        6           0.000061796   -0.000169099    0.000447432
      2        1           0.000267366   -0.000368686   -0.000500598
      3        1           0.000150552    0.000260289    0.000120495
      4        6          -0.001169348    0.000657877   -0.000280892
      5        1          -0.000249502   -0.000229392    0.000219864
      6        6           0.001169071   -0.000655688   -0.000283465
      7        1           0.000249080    0.000229957    0.000222398
      8        6          -0.000043822    0.000164513    0.000428046
      9        1          -0.000281864    0.000369483   -0.000500023
     10        1          -0.000153328   -0.000259256    0.000126742
 -------------------------------------------------------------------
 Cartesian Forces:  Max     0.001169348 RMS     0.000434519

 GradGradGradGradGradGradGradGradGradGradGradGradGradGradGradGradGradGrad
 Berny optimization.
 Using GEDIIS/GDIIS optimizer.
 Internal  Forces:  Max     0.001661408 RMS     0.000610016
 Search for a local minimum.
 Step number   4 out of a maximum of   43
 All quantities printed in internal units (Hartrees-Bohrs-Radians)
 Mixed Optimization -- En-DIIS/RFO-DIIS
 Update second derivatives using D2CorX and points    1    2    3    4
 DE= -2.96D-04 DEPred=-1.75D-04 R= 1.69D+00
 SS=  1.41D+00  RLast= 2.44D-01 DXNew= 9.1262D-01 7.3317D-01
 Trust test= 1.69D+00 RLast= 2.44D-01 DXMaxT set to 7.33D-01
 ITU=  1  1  1  0
 Use linear search instead of GDIIS.
     Eigenvalues ---    0.00058   0.01484   0.01494   0.02561   0.02681
     Eigenvalues ---    0.02682   0.02699   0.15189   0.15911   0.15999
     Eigenvalues ---    0.16000   0.16000   0.16453   0.21998   0.23652
     Eigenvalues ---    0.36480   0.37110   0.37230   0.37230   0.37230
     Eigenvalues ---    0.37636   0.40215   0.53930   0.67541
 RFO step:  Lambda=-2.42285307D-04 EMin= 5.76442478D-04
 Quartic linear search produced a step of  0.84410.
 Iteration  1 RMS(Cart)=  0.11959883 RMS(Int)=  0.03115998
 Iteration  2 RMS(Cart)=  0.04884838 RMS(Int)=  0.00096472
 Iteration  3 RMS(Cart)=  0.00148904 RMS(Int)=  0.00004287
 Iteration  4 RMS(Cart)=  0.00000101 RMS(Int)=  0.00004287
 Iteration  5 RMS(Cart)=  0.00000000 RMS(Int)=  0.00004287
 Variable       Old X    -DE/DX   Delta X   Delta X   Delta X     New X
                                 (Linear)    (Quad)   (Total)
    R1        2.05558  -0.00030  -0.00097   0.00046  -0.00051   2.05507
    R2        2.05269  -0.00014  -0.00176  -0.00024  -0.00200   2.05068
    R3        2.53164  -0.00021   0.00328  -0.00142   0.00186   2.53350
    R4        2.06060  -0.00013  -0.00095   0.00074  -0.00021   2.06039
    R5        2.77498   0.00094   0.01270  -0.00395   0.00875   2.78374
    R6        2.06061  -0.00013  -0.00103   0.00068  -0.00035   2.06025
    R7        2.53166  -0.00022   0.00324  -0.00146   0.00178   2.53344
    R8        2.05556  -0.00030  -0.00101   0.00045  -0.00056   2.05501
    R9        2.05270  -0.00015  -0.00174  -0.00024  -0.00197   2.05073
    A1        2.03144   0.00025  -0.00089  -0.00003  -0.00094   2.03049
    A2        2.13764  -0.00062  -0.00404  -0.00713  -0.01120   2.12644
    A3        2.11408   0.00037   0.00491   0.00710   0.01198   2.12606
    A4        2.05999   0.00049  -0.00156   0.00488   0.00326   2.06325
    A5        2.21987  -0.00165  -0.00627  -0.01456  -0.02090   2.19897
    A6        2.00324   0.00116   0.00777   0.00950   0.01720   2.02045
    A7        2.00322   0.00117   0.00772   0.00946   0.01712   2.02034
    A8        2.21994  -0.00166  -0.00629  -0.01489  -0.02125   2.19870
    A9        2.05994   0.00049  -0.00148   0.00525   0.00370   2.06364
   A10        2.13782  -0.00064  -0.00428  -0.00744  -0.01175   2.12608
   A11        2.11394   0.00039   0.00512   0.00736   0.01245   2.12639
   A12        2.03139   0.00025  -0.00086   0.00002  -0.00087   2.03053
    D1        3.11030  -0.00044  -0.00959  -0.03571  -0.04526   3.06504
    D2       -0.01697  -0.00032  -0.00387  -0.01961  -0.02353  -0.04049
    D3       -0.02297  -0.00031  -0.00506  -0.02698  -0.03199  -0.05496
    D4        3.13295  -0.00018   0.00066  -0.01088  -0.01026   3.12269
    D5        2.82022  -0.00026  -0.10214  -0.18091  -0.28305   2.53716
    D6       -0.33531  -0.00038  -0.10776  -0.19656  -0.30440  -0.63971
    D7       -0.30745  -0.00013  -0.09655  -0.16524  -0.26170  -0.56915
    D8        2.82021  -0.00026  -0.10217  -0.18088  -0.28305   2.53716
    D9       -0.01697  -0.00032  -0.00386  -0.01962  -0.02352  -0.04049
   D10        3.13295  -0.00018   0.00070  -0.01090  -0.01024   3.12271
   D11        3.11030  -0.00044  -0.00961  -0.03569  -0.04526   3.06504
   D12       -0.02297  -0.00031  -0.00504  -0.02697  -0.03198  -0.05495
         Item               Value     Threshold  Converged?
 Maximum Force            0.001661     0.000450     NO 
 RMS     Force            0.000610     0.000300     NO 
 Maximum Displacement     0.473449     0.001800     NO 
 RMS     Displacement     0.161905     0.001200     NO 
 Predicted change in Energy=-3.760796D-04
 GradGradGradGradGradGradGradGradGradGradGradGradGradGradGradGradGradGrad

                          Input orientation:                          
 ---------------------------------------------------------------------
 Center     Atomic      Atomic             Coordinates (Angstroms)
 Number     Number       Type             X           Y           Z
 ---------------------------------------------------------------------
      1          6           0       -3.496687    1.480860    1.130939
      2          1           0       -3.128856    1.083602    2.074092
      3          1           0       -4.566848    1.647574    1.063372
      4          6           0       -2.676371    1.728225    0.099776
      5          1           0       -3.116736    2.057098   -0.841869
      6          6           0       -1.213241    1.557228    0.097178
      7          1           0       -0.776346    1.228469   -0.846042
      8          6           0       -0.389591    1.804584    1.125638
      9          1           0       -0.754724    2.201730    2.069845
     10          1           0        0.680424    1.638095    1.054882
 ---------------------------------------------------------------------
                    Distance matrix (angstroms):
                    1          2          3          4          5
     1  C    0.000000
     2  H    1.087498   0.000000
     3  H    1.085175   1.845925   0.000000
     4  C    1.340673   2.125607   2.123423   0.000000
     5  H    2.090068   3.074194   2.429090   1.090310   0.000000
     6  C    2.507712   2.793223   3.491185   1.473091   2.180590
     7  H    3.372300   3.752662   4.264905   2.180464   2.482755
     8  C    3.123919   2.987131   4.180670   2.507506   3.372264
     9  H    2.986562   2.624258   3.981503   2.792509   3.752079
    10  H    4.180760   3.982068   5.247287   3.491192   4.265167
                    6          7          8          9         10
     6  C    0.000000
     7  H    1.090240   0.000000
     8  C    1.340639   2.090217   0.000000
     9  H    2.125332   3.074102   1.087463   0.000000
    10  H    2.123606   2.429709   1.085199   1.845937   0.000000
 Stoichiometry    C4H6
 Framework group  C1[X(C4H6)]
 Deg. of freedom    24
 Full point group                 C1      NOp   1
 Largest Abelian subgroup         C1      NOp   1
 Largest concise Abelian subgroup C1      NOp   1
                         Standard orientation:                         
 ---------------------------------------------------------------------
 Center     Atomic      Atomic             Coordinates (Angstroms)
 Number     Number       Type             X           Y           Z
 ---------------------------------------------------------------------
      1          6           0       -1.559608   -0.485074   -0.086219
      2          1           0       -1.213134   -1.428867   -0.500780
      3          1           0       -2.620292   -0.415654    0.132266
      4          6           0       -0.726468    0.544673    0.120911
      5          1           0       -1.148714    1.487083    0.470691
      6          6           0        0.726633    0.544739   -0.120946
      7          1           0        1.148673    1.487197   -0.470628
      8          6           0        1.559548   -0.485140    0.086217
      9          1           0        1.212504   -1.428709    0.500721
     10          1           0        2.620334   -0.416237   -0.132050
 ---------------------------------------------------------------------
 Rotational constants (GHZ):     21.7893415      5.4917945      4.5045846
 Standard basis: 6-31G(d) (6D, 7F)
 There are    72 symmetry adapted basis functions of A   symmetry.
 Integral buffers will be    131072 words long.
 Raffenetti 2 integral format.
 Two-electron integral symmetry is turned on.
    72 basis functions,   136 primitive gaussians,    72 cartesian basis functions
    15 alpha electrons       15 beta electrons
       nuclear repulsion energy       104.3731302181 Hartrees.
 NAtoms=   10 NActive=   10 NUniq=   10 SFac= 1.00D+00 NAtFMM=   60 NAOKFM=F Big=F
 One-electron integrals computed using PRISM.
 NBasis=    72 RedAO= T  NBF=    72
 NBsUse=    72 1.00D-06 NBFU=    72
 Initial guess read from the read-write file.
 B after Tr=     0.000000    0.000000    0.000000
         Rot=    1.000000    0.000000    0.000000    0.000000 Ang=   0.00 deg.
 Initial guess orbital symmetries:
       Occupied  (A) (A) (A) (A) (A) (A) (A) (A) (A) (A) (A) (A)
                 (A) (A) (A)
       Virtual   (A) (A) (A) (A) (A) (A) (A) (A) (A) (A) (A) (A)
                 (A) (A) (A) (A) (A) (A) (A) (A) (A) (A) (A) (A)
                 (A) (A) (A) (A) (A) (A) (A) (A) (A) (A) (A) (A)
                 (A) (A) (A) (A) (A) (A) (A) (A) (A) (A) (A) (A)
                 (A) (A) (A) (A) (A) (A) (A) (A) (A)
 Harris functional with IExCor=  402 diagonalized for initial guess.
 ExpMin= 1.61D-01 ExpMax= 3.05D+03 ExpMxC= 4.57D+02 IAcc=1 IRadAn=         1 AccDes= 0.00D+00
 HarFok:  IExCor=  402 AccDes= 0.00D+00 IRadAn=         1 IDoV= 1
 ScaDFX=  1.000000  1.000000  1.000000  1.000000
 FoFCou: FMM=F IPFlag=           0 FMFlag=      100000 FMFlg1=           0
         NFxFlg=           0 DoJE=T BraDBF=F KetDBF=T FulRan=T
         Omega=  0.000000  0.000000  1.000000  0.000000  0.000000 ICntrl=     500 IOpCl=  0
         NMat0=    1 NMatS0=    1 NMatT0=    0 NMatD0=    1 NMtDS0=    0 NMtDT0=    0
         I1Cent=           4 NGrid=           0.
 Petite list used in FoFCou.
 Requested convergence on RMS density matrix=1.00D-08 within 128 cycles.
 Requested convergence on MAX density matrix=1.00D-06.
 Requested convergence on             energy=1.00D-06.
 No special actions if energy rises.
 Keep R1 ints in memory in canonical form, NReq=4464842.
 Integral accuracy reduced to 1.0D-05 until final iterations.
 Initial convergence to 1.0D-05 achieved.  Increase integral accuracy.
 SCF Done:  E(RB3LYP) =  -155.986329783     A.U. after   11 cycles
             Convg  =    0.7096D-08             -V/T =  2.0104
 Calling FoFJK, ICntrl=      2127 FMM=F ISym2X=0 I1Cent= 0 IOpClX= 0 NMat=1 NMatS=1 NMatT=0.
 ***** Axes restored to original set *****
 -------------------------------------------------------------------
 Center     Atomic                   Forces (Hartrees/Bohr)
 Number     Number              X              Y              Z
 -------------------------------------------------------------------
      1        6           0.002830450   -0.000307038    0.000036287
      2        1           0.000687860    0.000613207   -0.000031083
      3        1          -0.000675434    0.000297730   -0.000898449
      4        6          -0.000290080   -0.000996853    0.001435440
      5        1           0.000348528    0.000374705   -0.000556020
      6        6           0.000232295    0.001001876    0.001451776
      7        1          -0.000310416   -0.000387364   -0.000581795
      8        6          -0.002799045    0.000307962    0.000056747
      9        1          -0.000676201   -0.000604401    0.000001417
     10        1           0.000652043   -0.000299823   -0.000914320
 -------------------------------------------------------------------
 Cartesian Forces:  Max     0.002830450 RMS     0.000963936

 GradGradGradGradGradGradGradGradGradGradGradGradGradGradGradGradGradGrad
 Berny optimization.
 Using GEDIIS/GDIIS optimizer.
 Internal  Forces:  Max     0.002885280 RMS     0.001125784
 Search for a local minimum.
 Step number   5 out of a maximum of   43
 All quantities printed in internal units (Hartrees-Bohrs-Radians)
 Mixed Optimization -- RFO/linear search
 Update second derivatives using D2CorX and points    4    5
 DE= -6.74D-05 DEPred=-3.76D-04 R= 1.79D-01
 Trust test= 1.79D-01 RLast= 5.75D-01 DXMaxT set to 7.33D-01
 ITU=  0  1  1  1  0
 Use linear search instead of GDIIS.
     Eigenvalues ---    0.00260   0.01488   0.01526   0.02491   0.02681
     Eigenvalues ---    0.02683   0.02715   0.15075   0.15360   0.15995
     Eigenvalues ---    0.16000   0.16000   0.16458   0.21007   0.22000
     Eigenvalues ---    0.36496   0.37111   0.37230   0.37230   0.37230
     Eigenvalues ---    0.37663   0.40702   0.53930   0.69704
 RFO step:  Lambda=-6.46909094D-05 EMin= 2.60419538D-03
 Quartic linear search produced a step of -0.39081.
 Iteration  1 RMS(Cart)=  0.05926263 RMS(Int)=  0.00155184
 Iteration  2 RMS(Cart)=  0.00222190 RMS(Int)=  0.00000517
 Iteration  3 RMS(Cart)=  0.00000197 RMS(Int)=  0.00000509
 Iteration  4 RMS(Cart)=  0.00000000 RMS(Int)=  0.00000509
 Variable       Old X    -DE/DX   Delta X   Delta X   Delta X     New X
                                 (Linear)    (Quad)   (Total)
    R1        2.05507  -0.00002   0.00020  -0.00079  -0.00059   2.05448
    R2        2.05068   0.00077   0.00078   0.00086   0.00165   2.05233
    R3        2.53350  -0.00254  -0.00073  -0.00213  -0.00286   2.53065
    R4        2.06039   0.00045   0.00008   0.00050   0.00058   2.06097
    R5        2.78374  -0.00289  -0.00342   0.00084  -0.00258   2.78116
    R6        2.06025   0.00050   0.00014   0.00055   0.00069   2.06094
    R7        2.53344  -0.00250  -0.00070  -0.00212  -0.00281   2.53063
    R8        2.05501   0.00001   0.00022  -0.00075  -0.00053   2.05447
    R9        2.05073   0.00075   0.00077   0.00083   0.00160   2.05233
    A1        2.03049   0.00104   0.00037   0.00392   0.00428   2.03477
    A2        2.12644  -0.00029   0.00438  -0.00336   0.00101   2.12746
    A3        2.12606  -0.00074  -0.00468  -0.00046  -0.00515   2.12091
    A4        2.06325   0.00158  -0.00127   0.00373   0.00245   2.06570
    A5        2.19897  -0.00198   0.00817  -0.00807   0.00009   2.19906
    A6        2.02045   0.00040  -0.00672   0.00454  -0.00219   2.01825
    A7        2.02034   0.00041  -0.00669   0.00460  -0.00209   2.01824
    A8        2.19870  -0.00194   0.00830  -0.00804   0.00026   2.19895
    A9        2.06364   0.00154  -0.00144   0.00363   0.00218   2.06582
   A10        2.12608  -0.00025   0.00459  -0.00332   0.00127   2.12734
   A11        2.12639  -0.00078  -0.00487  -0.00051  -0.00539   2.12101
   A12        2.03053   0.00103   0.00034   0.00393   0.00426   2.03479
    D1        3.06504   0.00074   0.01769   0.00580   0.02348   3.08853
    D2       -0.04049   0.00039   0.00919  -0.00103   0.00817  -0.03232
    D3       -0.05496   0.00027   0.01250   0.00015   0.01265  -0.04231
    D4        3.12269  -0.00008   0.00401  -0.00667  -0.00266   3.12003
    D5        2.53716   0.00051   0.11062  -0.01175   0.09887   2.63603
    D6       -0.63971   0.00088   0.11896  -0.00508   0.11389  -0.52582
    D7       -0.56915   0.00014   0.10228  -0.01842   0.08384  -0.48531
    D8        2.53716   0.00051   0.11062  -0.01175   0.09886   2.63603
    D9       -0.04049   0.00039   0.00919  -0.00102   0.00818  -0.03231
   D10        3.12271  -0.00008   0.00400  -0.00667  -0.00267   3.12004
   D11        3.06504   0.00074   0.01769   0.00580   0.02349   3.08852
   D12       -0.05495   0.00028   0.01250   0.00015   0.01264  -0.04231
         Item               Value     Threshold  Converged?
 Maximum Force            0.002885     0.000450     NO 
 RMS     Force            0.001126     0.000300     NO 
 Maximum Displacement     0.170708     0.001800     NO 
 RMS     Displacement     0.059098     0.001200     NO 
 Predicted change in Energy=-1.854096D-04
 GradGradGradGradGradGradGradGradGradGradGradGradGradGradGradGradGradGrad

                          Input orientation:                          
 ---------------------------------------------------------------------
 Center     Atomic      Atomic             Coordinates (Angstroms)
 Number     Number       Type             X           Y           Z
 ---------------------------------------------------------------------
      1          6           0       -3.485295    1.500321    1.137140
      2          1           0       -3.102872    1.173937    2.101087
      3          1           0       -4.559786    1.639543    1.062409
      4          6           0       -2.677722    1.709439    0.089550
      5          1           0       -3.127880    1.987518   -0.864113
      6          6           0       -1.212055    1.576057    0.087043
      7          1           0       -0.765171    1.298044   -0.868163
      8          6           0       -0.401031    1.785146    1.131958
      9          1           0       -0.780387    2.111464    2.097136
     10          1           0        0.673222    1.645997    1.053764
 ---------------------------------------------------------------------
                    Distance matrix (angstroms):
                    1          2          3          4          5
     1  C    0.000000
     2  H    1.087183   0.000000
     3  H    1.086046   1.848848   0.000000
     4  C    1.339160   2.124569   2.119789   0.000000
     5  H    2.090484   3.074890   2.425475   1.090616   0.000000
     6  C    2.505207   2.791641   3.487502   1.471726   2.178160
     7  H    3.385444   3.781096   4.271162   2.178143   2.461256
     8  C    3.097392   2.934745   4.161884   2.505128   3.385404
     9  H    2.934555   2.504577   3.946799   2.791398   3.780883
    10  H    4.161904   3.946975   5.233019   3.487487   4.271214
                    6          7          8          9         10
     6  C    0.000000
     7  H    1.090603   0.000000
     8  C    1.339151   2.090538   0.000000
     9  H    2.124493   3.074878   1.087181   0.000000
    10  H    2.119838   2.425665   1.086047   1.848855   0.000000
 Stoichiometry    C4H6
 Framework group  C1[X(C4H6)]
 Deg. of freedom    24
 Full point group                 C1      NOp   1
 Largest Abelian subgroup         C1      NOp   1
 Largest concise Abelian subgroup C1      NOp   1
                         Standard orientation:                         
 ---------------------------------------------------------------------
 Center     Atomic      Atomic             Coordinates (Angstroms)
 Number     Number       Type             X           Y           Z
 ---------------------------------------------------------------------
      1          6           0       -1.546911   -0.492658   -0.074626
      2          1           0       -1.180802   -1.457256   -0.417383
      3          1           0       -2.614132   -0.416107    0.111589
      4          6           0       -0.729172    0.553568    0.098768
      5          1           0       -1.165086    1.507996    0.396240
      6          6           0        0.729235    0.553592   -0.098779
      7          1           0        1.165106    1.508035   -0.396216
      8          6           0        1.546883   -0.492690    0.074626
      9          1           0        1.180577   -1.457219    0.417360
     10          1           0        2.614129   -0.416317   -0.111521
 ---------------------------------------------------------------------
 Rotational constants (GHZ):     21.5593360      5.5798675      4.5164145
 Standard basis: 6-31G(d) (6D, 7F)
 There are    72 symmetry adapted basis functions of A   symmetry.
 Integral buffers will be    131072 words long.
 Raffenetti 2 integral format.
 Two-electron integral symmetry is turned on.
    72 basis functions,   136 primitive gaussians,    72 cartesian basis functions
    15 alpha electrons       15 beta electrons
       nuclear repulsion energy       104.5400894929 Hartrees.
 NAtoms=   10 NActive=   10 NUniq=   10 SFac= 1.00D+00 NAtFMM=   60 NAOKFM=F Big=F
 One-electron integrals computed using PRISM.
 NBasis=    72 RedAO= T  NBF=    72
 NBsUse=    72 1.00D-06 NBFU=    72
 Initial guess read from the read-write file.
 B after Tr=     0.000000    0.000000    0.000000
         Rot=    1.000000    0.000000    0.000000    0.000000 Ang=   0.00 deg.
 Initial guess orbital symmetries:
       Occupied  (A) (A) (A) (A) (A) (A) (A) (A) (A) (A) (A) (A)
                 (A) (A) (A)
       Virtual   (A) (A) (A) (A) (A) (A) (A) (A) (A) (A) (A) (A)
                 (A) (A) (A) (A) (A) (A) (A) (A) (A) (A) (A) (A)
                 (A) (A) (A) (A) (A) (A) (A) (A) (A) (A) (A) (A)
                 (A) (A) (A) (A) (A) (A) (A) (A) (A) (A) (A) (A)
                 (A) (A) (A) (A) (A) (A) (A) (A) (A)
 Harris functional with IExCor=  402 diagonalized for initial guess.
 ExpMin= 1.61D-01 ExpMax= 3.05D+03 ExpMxC= 4.57D+02 IAcc=1 IRadAn=         1 AccDes= 0.00D+00
 HarFok:  IExCor=  402 AccDes= 0.00D+00 IRadAn=         1 IDoV= 1
 ScaDFX=  1.000000  1.000000  1.000000  1.000000
 FoFCou: FMM=F IPFlag=           0 FMFlag=      100000 FMFlg1=           0
         NFxFlg=           0 DoJE=T BraDBF=F KetDBF=T FulRan=T
         Omega=  0.000000  0.000000  1.000000  0.000000  0.000000 ICntrl=     500 IOpCl=  0
         NMat0=    1 NMatS0=    1 NMatT0=    0 NMatD0=    1 NMtDS0=    0 NMtDT0=    0
         I1Cent=           4 NGrid=           0.
 Petite list used in FoFCou.
 Requested convergence on RMS density matrix=1.00D-08 within 128 cycles.
 Requested convergence on MAX density matrix=1.00D-06.
 Requested convergence on             energy=1.00D-06.
 No special actions if energy rises.
 Keep R1 ints in memory in canonical form, NReq=4464842.
 Integral accuracy reduced to 1.0D-05 until final iterations.
 Initial convergence to 1.0D-05 achieved.  Increase integral accuracy.
 SCF Done:  E(RB3LYP) =  -155.986482951     A.U. after   11 cycles
             Convg  =    0.4325D-08             -V/T =  2.0103
 Calling FoFJK, ICntrl=      2127 FMM=F ISym2X=0 I1Cent= 0 IOpClX= 0 NMat=1 NMatS=1 NMatT=0.
 ***** Axes restored to original set *****
 -------------------------------------------------------------------
 Center     Atomic                   Forces (Hartrees/Bohr)
 Number     Number              X              Y              Z
 -------------------------------------------------------------------
      1        6           0.000356532    0.000003191    0.000352398
      2        1           0.000159091   -0.000139443   -0.000018645
      3        1          -0.000068062    0.000077228   -0.000200046
      4        6           0.000533384    0.000264570   -0.000004303
      5        1           0.000237495   -0.000175209   -0.000137250
      6        6          -0.000551002   -0.000264024    0.000005746
      7        1          -0.000229427    0.000173368   -0.000140210
      8        6          -0.000350571   -0.000001371    0.000360739
      9        1          -0.000153505    0.000139857   -0.000014233
     10        1           0.000066065   -0.000078167   -0.000204195
 -------------------------------------------------------------------
 Cartesian Forces:  Max     0.000551002 RMS     0.000233217

 GradGradGradGradGradGradGradGradGradGradGradGradGradGradGradGradGradGrad
 Berny optimization.
 Using GEDIIS/GDIIS optimizer.
 Internal  Forces:  Max     0.001212399 RMS     0.000293621
 Search for a local minimum.
 Step number   6 out of a maximum of   43
 All quantities printed in internal units (Hartrees-Bohrs-Radians)
 Mixed Optimization -- En-DIIS/RFO-DIIS
 Update second derivatives using D2CorX and points    4    5    6
 DE= -1.53D-04 DEPred=-1.85D-04 R= 8.26D-01
 SS=  1.41D+00  RLast= 2.03D-01 DXNew= 1.2330D+00 6.0942D-01
 Trust test= 8.26D-01 RLast= 2.03D-01 DXMaxT set to 7.33D-01
 ITU=  1  0  1  1  1  0
 Use linear search instead of GDIIS.
     Eigenvalues ---    0.00325   0.01489   0.01610   0.02578   0.02681
     Eigenvalues ---    0.02682   0.02811   0.14001   0.15449   0.15998
     Eigenvalues ---    0.16000   0.16000   0.16411   0.19190   0.21999
     Eigenvalues ---    0.36353   0.36757   0.37230   0.37230   0.37230
     Eigenvalues ---    0.37619   0.38166   0.53930   0.63230
 RFO step:  Lambda=-1.35615437D-05 EMin= 3.25420199D-03
 Quartic linear search produced a step of  0.03832.
 Iteration  1 RMS(Cart)=  0.00464190 RMS(Int)=  0.00000934
 Iteration  2 RMS(Cart)=  0.00001373 RMS(Int)=  0.00000328
 Iteration  3 RMS(Cart)=  0.00000000 RMS(Int)=  0.00000328
 Variable       Old X    -DE/DX   Delta X   Delta X   Delta X     New X
                                 (Linear)    (Quad)   (Total)
    R1        2.05448   0.00008  -0.00002   0.00009   0.00007   2.05454
    R2        2.05233   0.00009   0.00006   0.00018   0.00024   2.05257
    R3        2.53065  -0.00016  -0.00011   0.00009  -0.00002   2.53063
    R4        2.06097  -0.00002   0.00002  -0.00005  -0.00002   2.06094
    R5        2.78116  -0.00121  -0.00010  -0.00213  -0.00223   2.77893
    R6        2.06094  -0.00002   0.00003  -0.00003  -0.00001   2.06093
    R7        2.53063  -0.00014  -0.00011   0.00011   0.00000   2.53063
    R8        2.05447   0.00008  -0.00002   0.00009   0.00007   2.05454
    R9        2.05233   0.00009   0.00006   0.00018   0.00024   2.05257
    A1        2.03477   0.00025   0.00016   0.00142   0.00158   2.03636
    A2        2.12746  -0.00007   0.00004  -0.00098  -0.00094   2.12652
[...]
 Atom     5 has atomic number  1 and mass   1.00783
 Atom     6 has atomic number  6 and mass  12.00000
 Atom     7 has atomic number  1 and mass   1.00783
 Atom     8 has atomic number  6 and mass  12.00000
 Atom     9 has atomic number  1 and mass   1.00783
 Atom    10 has atomic number  1 and mass   1.00783
 Molecular mass:    54.04695 amu.
 Principal axes and moments of inertia in atomic units:
                           1         2         3
     Eigenvalues --    83.91075 322.26855 398.54369
           X            0.99998   0.00000  -0.00582
           Y            0.00000   1.00000   0.00000
           Z            0.00582   0.00000   0.99998
 This molecule is an asymmetric top.
 Rotational symmetry number  1.
 Rotational temperatures (Kelvin)      1.03221     0.26876     0.21733
 Rotational constants (GHZ):          21.50787     5.60012     4.52834
 Zero-point vibrational energy     224077.3 (Joules/Mol)
                                   53.55576 (Kcal/Mol)
 Warning -- explicit consideration of   4 degrees of freedom as
           vibrations may cause significant error
 Vibrational temperatures:    222.65   396.82   687.83   883.22  1089.37
          (Kelvin)           1284.12  1344.03  1344.97  1475.41  1491.91
                             1548.63  1604.13  1904.91  1954.62  2098.04
                             2138.10  2440.02  2475.12  4520.51  4538.94
                             4554.28  4560.25  4669.69  4672.96
 
 Zero-point correction=                           0.085347 (Hartree/Particle)
 Thermal correction to Energy=                    0.090051
 Thermal correction to Enthalpy=                  0.090995
 Thermal correction to Gibbs Free Energy=         0.058640
 Sum of electronic and zero-point Energies=           -155.901143
 Sum of electronic and thermal Energies=              -155.896439
 Sum of electronic and thermal Enthalpies=            -155.895494
 Sum of electronic and thermal Free Energies=         -155.927850
 
                     E (Thermal)             CV                S
                      KCal/Mol        Cal/Mol-Kelvin    Cal/Mol-Kelvin
 Total                   56.508             15.774             68.097
 Electronic               0.000              0.000              0.000
 Translational            0.889              2.981             37.884
 Rotational               0.889              2.981             23.892
 Vibrational             54.730              9.813              6.321
 Vibration     1          0.620              1.897              2.613
 Vibration     2          0.677              1.718              1.560
 Vibration     3          0.835              1.299              0.715
 Vibration     4          0.973              1.003              0.426
                       Q            Log10(Q)             Ln(Q)
 Total Bot       0.106543D-26        -26.972475        -62.106418
 Total V=0       0.192363D+13         12.284123         28.285238
 Vib (Bot)       0.183574D-38        -38.736189        -89.193371
 Vib (Bot)    1  0.130848D+01          0.116766          0.268863
 Vib (Bot)    2  0.698628D+00         -0.155754         -0.358636
 Vib (Bot)    3  0.350416D+00         -0.455416         -1.048633
 Vib (Bot)    4  0.239768D+00         -0.620208         -1.428082
 Vib (V=0)       0.331443D+01          0.520408          1.198285
 Vib (V=0)    1  0.190075D+01          0.278926          0.642250
 Vib (V=0)    2  0.135912D+01          0.133257          0.306835
 Vib (V=0)    3  0.111057D+01          0.045545          0.104870
 Vib (V=0)    4  0.105452D+01          0.023053          0.053083
 Electronic      0.100000D+01          0.000000          0.000000
 Translational   0.156175D+08          7.193612         16.563904
 Rotational      0.371623D+05          4.570102         10.523049
 ***** Axes restored to original set *****
 -------------------------------------------------------------------
 Center     Atomic                   Forces (Hartrees/Bohr)
 Number     Number              X              Y              Z
 -------------------------------------------------------------------
      1        6          -0.000002193    0.000004092   -0.000000843
      2        1           0.000003688    0.000000577   -0.000004124
      3        1          -0.000001815    0.000007556   -0.000009141
      4        6           0.000009017   -0.000004896    0.000022203
      5        1           0.000000396    0.000002953   -0.000008543
      6        6          -0.000009735    0.000004976    0.000023504
      7        1           0.000000302   -0.000003042   -0.000008860
      8        6           0.000001797   -0.000004048   -0.000000931
      9        1          -0.000003165   -0.000000496   -0.000003755
     10        1           0.000001710   -0.000007672   -0.000009511
 -------------------------------------------------------------------
 Cartesian Forces:  Max     0.000023504 RMS     0.000007819

 GradGradGradGradGradGradGradGradGradGradGradGradGradGradGradGradGradGrad
 Berny optimization.
 Internal  Forces:  Max     0.000020835 RMS     0.000008195
 Search for a local minimum.
 Step number   1 out of a maximum of    2
 All quantities printed in internal units (Hartrees-Bohrs-Radians)
 Second derivative matrix not updated -- analytic derivatives used.
 ITU=  0
     Eigenvalues ---    0.00335   0.02390   0.02394   0.03012   0.03065
     Eigenvalues ---    0.03932   0.03994   0.10663   0.10913   0.11307
     Eigenvalues ---    0.11317   0.13381   0.13674   0.17361   0.17411
     Eigenvalues ---    0.34366   0.35212   0.35388   0.36164   0.36373
     Eigenvalues ---    0.36553   0.36657   0.61631   0.62943
 Angle between quadratic step and forces=  49.82 degrees.
 Linear search not attempted -- first point.
 Iteration  1 RMS(Cart)=  0.00020154 RMS(Int)=  0.00000002
 Iteration  2 RMS(Cart)=  0.00000002 RMS(Int)=  0.00000000
 Variable       Old X    -DE/DX   Delta X   Delta X   Delta X     New X
                                 (Linear)    (Quad)   (Total)
    R1        2.05454   0.00000   0.00000   0.00000   0.00000   2.05454
    R2        2.05257   0.00000   0.00000   0.00000   0.00000   2.05257
    R3        2.53068  -0.00001   0.00000  -0.00002  -0.00002   2.53066
    R4        2.06084   0.00001   0.00000   0.00003   0.00003   2.06087
    R5        2.77822  -0.00001   0.00000  -0.00005  -0.00005   2.77817
    R6        2.06084   0.00001   0.00000   0.00003   0.00003   2.06087
    R7        2.53068  -0.00001   0.00000  -0.00002  -0.00002   2.53066
    R8        2.05454   0.00000   0.00000   0.00000   0.00000   2.05454
    R9        2.05256   0.00000   0.00000   0.00001   0.00001   2.05257
    A1        2.03688   0.00001   0.00000   0.00010   0.00010   2.03698
    A2        2.12631   0.00000   0.00000  -0.00002  -0.00002   2.12629
    A3        2.11992  -0.00001   0.00000  -0.00007  -0.00007   2.11985
    A4        2.06852  -0.00001   0.00000  -0.00002  -0.00002   2.06850
    A5        2.19638   0.00002   0.00000   0.00011   0.00011   2.19649
    A6        2.01805  -0.00001   0.00000  -0.00009  -0.00009   2.01796
    A7        2.01805  -0.00001   0.00000  -0.00009  -0.00009   2.01796
    A8        2.19637   0.00002   0.00000   0.00012   0.00012   2.19649
    A9        2.06853  -0.00001   0.00000  -0.00003  -0.00003   2.06850
   A10        2.12630   0.00000   0.00000  -0.00001  -0.00001   2.12629
   A11        2.11993  -0.00001   0.00000  -0.00008  -0.00008   2.11985
   A12        2.03689   0.00001   0.00000   0.00009   0.00009   2.03698
    D1        3.08301   0.00000   0.00000  -0.00006  -0.00006   3.08294
    D2       -0.03442   0.00000   0.00000   0.00000   0.00000  -0.03441
    D3       -0.04549   0.00000   0.00000  -0.00001  -0.00001  -0.04550
    D4        3.12027   0.00000   0.00000   0.00005   0.00005   3.12033
    D5        2.63672   0.00000   0.00000  -0.00016  -0.00016   2.63656
    D6       -0.52843   0.00000   0.00000  -0.00023  -0.00023  -0.52865
    D7       -0.48132   0.00000   0.00000  -0.00010  -0.00010  -0.48142
    D8        2.63672   0.00000   0.00000  -0.00016  -0.00016   2.63656
    D9       -0.03442   0.00000   0.00000   0.00000   0.00000  -0.03441
   D10        3.12027   0.00000   0.00000   0.00005   0.00005   3.12033
   D11        3.08301   0.00000   0.00000  -0.00006  -0.00006   3.08294
   D12       -0.04549   0.00000   0.00000  -0.00001  -0.00001  -0.04550
         Item               Value     Threshold  Converged?
 Maximum Force            0.000021     0.000450     YES
 RMS     Force            0.000008     0.000300     YES
 Maximum Displacement     0.000443     0.001800     YES
 RMS     Displacement     0.000202     0.001200     YES
 Predicted change in Energy=-6.900792D-09
 Optimization completed.
    -- Stationary point found.
                           ----------------------------
                           !   Optimized Parameters   !
                           ! (Angstroms and Degrees)  !
 --------------------------                            --------------------------
 ! Name  Definition              Value          Derivative Info.                !
 --------------------------------------------------------------------------------
 ! R1    R(1,2)                  1.0872         -DE/DX =    0.0                 !
 ! R2    R(1,3)                  1.0862         -DE/DX =    0.0                 !
 ! R3    R(1,4)                  1.3392         -DE/DX =    0.0                 !
 ! R4    R(4,5)                  1.0906         -DE/DX =    0.0                 !
 ! R5    R(4,6)                  1.4702         -DE/DX =    0.0                 !
 ! R6    R(6,7)                  1.0905         -DE/DX =    0.0                 !
 ! R7    R(6,8)                  1.3392         -DE/DX =    0.0                 !
 ! R8    R(8,9)                  1.0872         -DE/DX =    0.0                 !
 ! R9    R(8,10)                 1.0862         -DE/DX =    0.0                 !
 ! A1    A(2,1,3)              116.7049         -DE/DX =    0.0                 !
 ! A2    A(2,1,4)              121.8287         -DE/DX =    0.0                 !
 ! A3    A(3,1,4)              121.4625         -DE/DX =    0.0                 !
 ! A4    A(1,4,5)              118.5177         -DE/DX =    0.0                 !
 ! A5    A(1,4,6)              125.8432         -DE/DX =    0.0                 !
 ! A6    A(5,4,6)              115.6259         -DE/DX =    0.0                 !
 ! A7    A(4,6,7)              115.6258         -DE/DX =    0.0                 !
 ! A8    A(4,6,8)              125.8427         -DE/DX =    0.0                 !
 ! A9    A(7,6,8)              118.5182         -DE/DX =    0.0                 !
 ! A10   A(6,8,9)              121.8281         -DE/DX =    0.0                 !
 ! A11   A(6,8,10)             121.463          -DE/DX =    0.0                 !
 ! A12   A(9,8,10)             116.705          -DE/DX =    0.0                 !
 ! D1    D(2,1,4,5)            176.6432         -DE/DX =    0.0                 !
 ! D2    D(2,1,4,6)             -1.9719         -DE/DX =    0.0                 !
 ! D3    D(3,1,4,5)             -2.6064         -DE/DX =    0.0                 !
 ! D4    D(3,1,4,6)            178.7785         -DE/DX =    0.0                 !
 ! D5    D(1,4,6,7)            151.0729         -DE/DX =    0.0                 !
 ! D6    D(1,4,6,8)            -30.2767         -DE/DX =    0.0                 !
 ! D7    D(5,4,6,7)            -27.5775         -DE/DX =    0.0                 !
 ! D8    D(5,4,6,8)            151.0729         -DE/DX =    0.0                 !
 ! D9    D(4,6,8,9)             -1.9718         -DE/DX =    0.0                 !
 ! D10   D(4,6,8,10)           178.7786         -DE/DX =    0.0                 !
 ! D11   D(7,6,8,9)            176.6433         -DE/DX =    0.0                 !
 ! D12   D(7,6,8,10)            -2.6063         -DE/DX =    0.0                 !
 --------------------------------------------------------------------------------
 GradGradGradGradGradGradGradGradGradGradGradGradGradGradGradGradGradGrad

 1\1\GINC-NISER-THINKCENTRE-M93P\Freq\RB3LYP\6-31G(d)\C4H6\STUDENT\02-M
 ar-2021\0\\#N Geom=AllCheck Guess=TCheck SCRF=Check GenChk RB3LYP/6-31
 G(d) Freq\\Title Card Required\\0,1\C,-3.4821256751,1.5007945318,1.138
 0157873\H,-3.0967699752,1.1706757349,2.0995566869\H,-4.5566863165,1.64
 13483396,1.0650035677\C,-2.6768616337,1.7106625777,0.0887785766\H,-3.1
 264462317,1.9876086033,-0.8654099593\C,-1.2129797328,1.574854992,0.086
 3302446\H,-0.7665868383,1.2979507309,-0.8693664664\C,-0.4042242126,1.7
 846796402,1.1328873205\H,-0.786385092,2.1147550822,2.0957171236\H,0.67
 00884879,1.6441350073,1.0562975386\\Version=EM64L-G09RevC.01\State=1-A
 \HF=-155.9864897\RMSD=1.097e-09\RMSF=7.819e-06\ZeroPoint=0.0853465\The
 rmal=0.0900511\Dipole=-0.0000776,0.0000011,-0.0474325\DipoleDeriv=-0.0
 621428,-0.0700935,0.0387749,-0.0692168,-0.2539086,-0.0727966,0.0506409
 ,-0.1038914,-0.0024828,0.020892,0.0351763,-0.0687172,0.0296832,0.11255
 4,0.0546234,-0.0264386,0.0641465,-0.0494009,-0.1055513,0.0243328,0.003
 8538,0.0471275,0.1250527,0.0268108,-0.0049386,0.0278049,0.056598,0.166
 5255,-0.0122372,0.0396643,-0.0467493,-0.0843091,-0.1205744,0.1878369,-
 0.0670456,0.0912532,-0.0195596,0.0227795,-0.0580628,0.0390467,0.100612
 1,0.0485929,-0.065079,0.0533907,-0.0961335,0.1657597,-0.0120118,-0.039
 915,-0.0463379,-0.0843167,0.1207224,-0.1880875,0.0670782,0.0920228,-0.
 0191474,0.0225984,0.0578058,0.0388815,0.1006174,-0.048714,0.0648237,-0
 .0534575,-0.0965461,-0.0624381,-0.0697438,-0.0385756,-0.068971,-0.2539
 164,0.0730143,-0.0504421,0.1041121,-0.0021807,0.021207,0.0349597,0.068
 4845,0.0294991,0.1125585,-0.0547141,0.0262048,-0.0642557,-0.0497219,-0
 .1055449,0.0242394,-0.0033126,0.047037,0.1250562,-0.0269647,0.0054795,
 -0.0278823,0.056592\Polar=60.6745556,1.1448514,18.0128363,-0.026657,-0
 .0024868,44.6746762\PG=C01 [X(C4H6)]\NImag=0\\0.71917901,-0.03577583,0
 .15726366,-0.11039393,-0.16910808,0.72503386,-0.09723526,0.03522881,-0
 .09124768,0.09315660,0.03328739,-0.06400133,0.08341819,-0.03627381,0.0
 5422583,-0.08820967,0.08171080,-0.27249084,0.09608241,-0.09125659,0.29
 151762,-0.33650785,0.03959466,-0.02145605,-0.00634801,0.00059391,0.000
 98722,0.35657556,0.04121344,-0.03908680,0.00959241,0.00800226,0.001400
 39,-0.00011001,-0.04300783,0.03029372,-0.02559615,0.01009394,-0.058671
 48,-0.02529544,0.00312620,0.00132186,0.02095285,-0.01142263,0.05372077
 ,-0.26025221,-0.03550550,0.19429058,0.01223427,0.00595148,-0.00980359,
 -0.01518457,-0.00747966,0.02738328,0.65015731,-0.03644895,-0.06526285,
 0.07156258,-0.00609507,0.00327886,0.00817624,0.00319224,0.00462612,-0.
 00265780,-0.01598101,0.16970566,0.20679839,0.07212820,-0.37880952,0.01
 734525,0.00470425,-0.02010317,-0.00413960,-0.00081098,0.00470069,-0.11
 101546,-0.13769256,0.75340565,0.01064057,-0.00592829,0.01951227,-0.001
 57719,0.00006240,0.00352138,0.00106082,-0.00071486,-0.00022098,-0.1040
 1423,0.03269673,-0.09891044,0.11081510,0.00104009,0.00351043,0.0072861
 9,0.00048049,0.01128510,0.00368667,-0.00100995,-0.00715337,-0.00240057
 ,0.03407229,-0.05813655,0.06042292,-0.03339988,0.04683083,-0.01209014,
 0.00800466,-0.02124456,0.00344699,0.00273121,-0.00159088,0.00003698,-0
 .00185235,0.00082126,-0.09610897,0.06262819,-0.26248911,0.10371575,-0.
 07192500,0.28076340,-0.03323187,0.00096518,0.01915795,0.00035867,-0.00
 279789,-0.00303145,0.00102877,0.00221221,0.00141442,-0.23885687,0.0207
 1131,-0.01326221,-0.01218739,-0.00215279,0.00108988,0.65089593,-0.0050
 6467,0.00667403,-0.00181974,-0.00077170,-0.00683408,-0.00239211,0.0007
 2128,0.01084333,0.00373855,0.02072060,-0.06742112,0.00292075,0.0070368
 2,0.00252662,-0.00050463,-0.01552616,0.16969387,0.02344771,-0.00215219
 ,0.00982366,-0.00025613,-0.00331129,0.00004767,0.00355749,0.00545441,-
 0.00194497,0.01370603,-0.00298830,-0.10638619,-0.02975415,0.00168773,0
 .00170407,0.11135510,0.13772157,0.75268045,-0.00493840,0.00174900,-0.0
 0236870,0.00029674,0.00041021,0.00019544,-0.00101738,-0.00151649,0.000
 75720,-0.01209157,0.00703718,0.02980061,0.00091464,-0.00039861,-0.0006
 9749,-0.10336461,0.03248320,0.09838088,0.11012392,0.00147878,0.0011183
 6,-0.00063808,0.00006951,0.00026059,-0.00003714,-0.00018296,-0.0000891
 9,-0.00024567,-0.00215837,0.00252668,-0.00168047,-0.00039973,-0.000152
 73,-0.00032446,0.03386627,-0.05813116,-0.06052815,-0.03315519,0.046824
 46,-0.00040162,-0.00100004,0.00118891,-0.00018723,-0.00021610,0.000042
 61,0.00000480,-0.00002837,-0.00002299,-0.00104391,0.00048118,0.0016081
 3,0.00069719,0.00032575,0.00083396,0.09557973,-0.06272882,-0.26314634,
 -0.10314817,0.07202656,0.28146252,0.00225103,-0.00010429,-0.00710599,-
 0.00022030,-0.00075675,0.00021944,0.00031872,0.00113206,0.00041728,-0.
 03337386,-0.00505762,-0.02330416,-0.00492915,0.00148091,0.00042210,-0.
 26158997,-0.03667867,-0.20718988,0.01061570,0.00101528,0.01198396,0.71
 991830,-0.00010347,-0.00007604,0.00033578,-0.00031445,0.00021860,-0.00
 029528,0.00008850,-0.00035806,-0.00036193,0.00097306,0.00667388,0.0021
 4876,0.00175223,0.00111828,0.00099419,-0.03573780,-0.06525688,-0.07199
 649,-0.00595408,0.00351112,-0.00798365,-0.03521558,0.15724852,0.007082
 46,-0.00033524,-0.00481685,0.00029521,0.00171040,0.00063157,0.00009286
 ,-0.00108239,-0.00064821,-0.01901407,0.00183647,0.00996540,0.00238918,
 0.00063312,0.00117965,-0.19468277,-0.07142764,-0.37747798,-0.01961869,
 -0.00728845,-0.02121972,0.11040917,0.16920118,0.72431045,-0.00022202,-
 0.00031346,-0.00029238,-0.00082205,-0.00053153,0.00001942,0.00015704,0
 .00020376,0.00016824,0.00036959,-0.00076375,0.00025492,0.00029671,0.00
 006961,0.00018638,0.01220875,-0.00612151,-0.01745331,-0.00160045,0.000
 46832,-0.00344692,-0.09664127,0.03495321,0.09066574,0.09252083,-0.0007
 6246,0.00021866,-0.00170788,-0.00052992,0.00008574,0.00048313,0.000056
 01,0.00008028,0.00042469,-0.00278694,-0.00683439,0.00332039,0.00041096
 ,0.00026058,0.00021475,0.00593541,0.00327941,-0.00472326,0.00005342,0.
 01128538,-0.00273087,0.03300609,-0.06399387,-0.08351899,-0.03596609,0.
 05421764,-0.00021661,0.00029630,0.00063323,-0.00001552,-0.00048137,0.0
 0035575,-0.00001902,-0.00003497,0.00026734,0.00303027,0.00239438,0.000
 03691,-0.00019626,0.00003692,0.00004265,0.00969627,-0.00815500,-0.0200
 7863,-0.00352135,-0.00368769,-0.00156793,0.08762728,-0.08181805,-0.273
 09234,-0.09542305,0.09136603,0.29216213,0.00031700,0.00008972,-0.00009
 608,0.00015654,0.00005459,0.00001940,-0.00008311,-0.00004490,0.0000193
 1,0.00101213,0.00070894,-0.00356730,-0.00101989,-0.00018215,-0.0000014
 7,-0.01526141,0.00320081,0.00420627,0.00106141,-0.00100190,-0.00003783
 ,-0.33634918,0.03955838,0.02238091,-0.00626714,0.00058350,-0.00096200,
 0.35643365,0.00113569,-0.00035813,0.00107862,0.00020388,0.00008030,0.0
 0003429,-0.00004588,-0.00055643,-0.00029478,0.00219405,0.01084373,-0.0
 0546125,-0.00151637,-0.00008920,0.00003343,-0.00747573,0.00462598,0.00
 083598,-0.00070864,-0.00715349,0.00185438,0.04117857,-0.03908555,-0.00
 972845,0.00800143,0.00140057,0.00008344,-0.04296700,0.03029223,-0.0004
 2046,0.00036164,-0.00064641,-0.00016786,-0.00042488,0.00026782,-0.0000
 1751,0.00029489,0.00045573,-0.00142414,-0.00374039,-0.00192880,-0.0007
 5395,0.00024628,-0.00002043,-0.02731693,0.00264707,0.00477826,0.000220
 27,0.00240355,0.00082085,0.02652081,-0.01022451,-0.05883196,0.02532097
 ,-0.00312799,0.00124089,-0.02196121,0.01156433,0.05386405\\0.00000219,
 -0.00000409,0.00000084,-0.00000369,-0.00000058,0.00000412,0.00000182,-
 0.00000756,0.00000914,-0.00000902,0.00000490,-0.00002220,-0.00000040,-
 0.00000295,0.00000854,0.00000973,-0.00000498,-0.00002350,-0.00000030,0
 .00000304,0.00000886,-0.00000180,0.00000405,0.00000093,0.00000317,0.00
 000050,0.00000376,-0.00000171,0.00000767,0.00000951\\\@


 WHEN IT COMES TO CASH FLOW, IT SEEMS LIKE THE TIDE IS ALWAYS GOING OUT.
 Job cpu time:  0 days  0 hours  0 minutes 31.0 seconds.
 File lengths (MBytes):  RWF=     10 Int=      0 D2E=      0 Chk=      2 Scr=      1
 Normal termination of Gaussian 09 at Tue Mar  2 14:57:43 2021.
