 Entering Gaussian System, Link 0=g09
 Input=hex02.com
 Output=hex02.log
 Initial command:
 /home/student/g09/l1.exe /home/student/singh/other/Gau-22827.inp -scrdir=/home/student/singh/other/
 Entering Link 1 = /home/student/g09/l1.exe PID=     22829.
  
 Copyright (c) 1988,1990,1992,1993,1995,1998,2003,2009,2011,
            Gaussian, Inc.  All Rights Reserved.
  
 This is part of the Gaussian(R) 09 program.  It is based on
 the Gaussian(R) 03 system (copyright 2003, Gaussian, Inc.),
 the Gaussian(R) 98 system (copyright 1998, Gaussian, Inc.),
 the Gaussian(R) 94 system (copyright 1995, Gaussian, Inc.),
 the Gaussian 92(TM) system (copyright 1992, Gaussian, Inc.),
 the Gaussian 90(TM) system (copyright 1990, Gaussian, Inc.),
 the Gaussian 88(TM) system (copyright 1988, Gaussian, Inc.),
 the Gaussian 86(TM) system (copyright 1986, Carnegie Mellon
 University), and the Gaussian 82(TM) system (copyright 1983,
 Carnegie Mellon University). Gaussian is a federally registered
 trademark of Gaussian, Inc.
  
 This software contains proprietary and confidential information,
 including trade secrets, belonging to Gaussian, Inc.
  
 This software is provided under written license and may be
 used, copied, transmitted, or stored only in accord with that
 written license.
  
 The following legend is applicable only to US Government
 contracts under FAR:
  
                    RESTRICTED RIGHTS LEGEND
  
 Use, reproduction and disclosure by the US Government is
 subject to restrictions as set forth in subparagraphs (a)
 and (c) of the Commercial Computer Software - Restricted
 Rights clause in FAR 52.227-19.
  
 Gaussian, Inc.
 340 Quinnipiac St., Bldg. 40, Wallingford CT 06492
  
  
 ---------------------------------------------------------------
 Warning -- This program may not be used in any manner that
 competes with the business of Gaussian, Inc. or will provide
 assistance to any competitor of Gaussian, Inc.  The licensee
 of this program is prohibited from giving any competitor of
 Gaussian, Inc. access to this program.  By using this program,
 the user acknowledges that Gaussian, Inc. is engaged in the
 business of creating and licensing software in the field of
 computational chemistry and represents and warrants to the
 licensee that it is not a competitor of Gaussian, Inc. and that
 it will not use this program in any manner prohibited above.
 ---------------------------------------------------------------
  

 Cite this work as:
 Gaussian 09, Revision C.01,
 M. J. Frisch, G. W. Trucks, H. B. Schlegel, G. E. Scuseria, 
 M. A. Robb, J. R. Cheeseman, G. Scalmani, V. Barone, B. Mennucci, 
 G. A. Petersson, H. Nakatsuji, M. Caricato, X. Li, H. P. Hratchian, 
 A. F. Izmaylov, J. Bloino, G. Zheng, J. L. Sonnenberg, M. Hada, 
 M. Ehara, K. Toyota, R. Fukuda, J. Hasegawa, M. Ishida, T. Nakajima, 
 Y. Honda, O. Kitao, H. Nakai, T. Vreven, J. A. Montgomery, Jr., 
 J. E. Peralta, F. Ogliaro, M. Bearpark, J. J. Heyd, E. Brothers, 
 K. N. Kudin, V. N. Staroverov, T. Keith, R. Kobayashi, J. Normand, 
 K. Raghavachari, A. Rendell, J. C. Burant, S. S. Iyengar, J. Tomasi, 
 M. Cossi, N. Rega, J. M. Millam, M. Klene, J. E. Knox, J. B. Cross, 
 V. Bakken, C. Adamo, J. Jaramillo, R. Gomperts, R. E. Stratmann, 
 O. Yazyev, A. J. Austin, R. Cammi, C. Pomelli, J. W. Ochterski, 
 R. L. Martin, K. Morokuma, V. G. Zakrzewski, G. A. Voth, 
 P. Salvador, J. J. Dannenberg, S. Dapprich, A. D. Daniels, 
 O. Farkas, J. B. Foresman, J. V. Ortiz, J. Cioslowski, 
 and D. J. Fox, Gaussian, Inc., Wallingford CT, 2010.
 
 ******************************************
 Gaussian 09:  EM64L-G09RevC.01 23-Sep-2011
                 2-Mar-2021 
 ******************************************
 %chk=hex02.chk
 -----------------------------------------
 # opt freq b3lyp/6-31g* geom=connectivity
 -----------------------------------------
 1/14=-1,18=20,19=15,26=3,38=1,57=2/1,3;
 2/9=110,12=2,17=6,18=5,40=1/2;
 3/5=1,6=6,7=1,11=2,16=1,25=1,30=1,71=1,74=-5/1,2,3;
 4//1;
 5/5=2,38=5/2;
 6/7=2,8=2,9=2,10=2,28=1/1;
 7//1,2,3,16;
 1/14=-1,18=20,19=15/3(2);
 2/9=110/2;
 99//99;
 2/9=110/2;
 3/5=1,6=6,7=1,11=2,16=1,25=1,30=1,71=1,74=-5/1,2,3;
 4/5=5,16=3/1;
 5/5=2,38=5/2;
 7//1,2,3,16;
 1/14=-1,18=20,19=15/3(-5);
 2/9=110/2;
 6/7=2,8=2,9=2,10=2,19=2,28=1/1;
 99/9=1/99;
 -------------------
 Title Card Required
 -------------------
 Charge =  0 Multiplicity = 1
 Symbolic Z-Matrix:
 C                    -3.96411  -1.247     3.02211 
 H                    -4.22426  -0.31774   3.48437 
 H                    -4.23801  -2.16991   3.48914 
 C                    -3.28891  -1.25907   1.84715 
 H                    -3.02876  -2.18833   1.38489 
 C                    -2.8947    0.06923   1.17498 
 H                    -3.15485   0.9985    1.63724 
 C                    -2.21944   0.06522   0. 
 H                    -1.94554   0.98813  -0.46703 
 C                    -1.84502  -1.27223  -0.66531 
 H                    -1.31187  -1.2754   -1.59301 
 C                    -2.18847  -2.44519  -0.07984 
 H                    -2.72166  -2.44838   0.84785 
 H                    -1.92556  -3.37129  -0.54687 
 

 GradGradGradGradGradGradGradGradGradGradGradGradGradGradGradGradGradGrad
 Berny optimization.
 Initialization pass.
                           ----------------------------
                           !    Initial Parameters    !
                           ! (Angstroms and Degrees)  !
 --------------------------                            --------------------------
 ! Name  Definition              Value          Derivative Info.                !
 --------------------------------------------------------------------------------
 ! R1    R(1,2)                  1.07           estimate D2E/DX2                !
 ! R2    R(1,3)                  1.07           estimate D2E/DX2                !
 ! R3    R(1,4)                  1.3552         estimate D2E/DX2                !
 ! R4    R(4,5)                  1.07           estimate D2E/DX2                !
 ! R5    R(4,6)                  1.54           estimate D2E/DX2                !
 ! R6    R(5,13)                 0.6711         estimate D2E/DX2                !
 ! R7    R(6,7)                  1.07           estimate D2E/DX2                !
 ! R8    R(6,8)                  1.3552         estimate D2E/DX2                !
 ! R9    R(8,9)                  1.07           estimate D2E/DX2                !
 ! R10   R(8,10)                 1.54           estimate D2E/DX2                !
 ! R11   R(10,11)                1.07           estimate D2E/DX2                !
 ! R12   R(10,12)                1.3552         estimate D2E/DX2                !
 ! R13   R(12,13)                1.07           estimate D2E/DX2                !
 ! R14   R(12,14)                1.07           estimate D2E/DX2                !
 ! A1    A(2,1,3)              119.8865         estimate D2E/DX2                !
 ! A2    A(2,1,4)              120.2269         estimate D2E/DX2                !
 ! A3    A(3,1,4)              119.8865         estimate D2E/DX2                !
 ! A4    A(1,4,5)              120.2269         estimate D2E/DX2                !
 ! A5    A(1,4,6)              119.8865         estimate D2E/DX2                !
 ! A6    A(5,4,6)              119.8865         estimate D2E/DX2                !
 ! A7    A(4,5,13)             142.5161         estimate D2E/DX2                !
 ! A8    A(4,6,7)              119.8865         estimate D2E/DX2                !
 ! A9    A(4,6,8)              120.2269         estimate D2E/DX2                !
 ! A10   A(7,6,8)              119.8865         estimate D2E/DX2                !
 ! A11   A(6,8,9)              120.2269         estimate D2E/DX2                !
 ! A12   A(6,8,10)             119.8865         estimate D2E/DX2                !
 ! A13   A(9,8,10)             119.8865         estimate D2E/DX2                !
 ! A14   A(8,10,11)            119.8865         estimate D2E/DX2                !
 ! A15   A(8,10,12)            120.2269         estimate D2E/DX2                !
 ! A16   A(11,10,12)           119.8865         estimate D2E/DX2                !
 ! A17   A(10,12,13)           120.2269         estimate D2E/DX2                !
 ! A18   A(10,12,14)           119.8865         estimate D2E/DX2                !
 ! A19   A(13,12,14)           119.8865         estimate D2E/DX2                !
 ! A20   A(5,13,12)            157.03           estimate D2E/DX2                !
 ! D1    D(2,1,4,5)            180.0            estimate D2E/DX2                !
 ! D2    D(2,1,4,6)              0.0            estimate D2E/DX2                !
 ! D3    D(3,1,4,5)              0.0            estimate D2E/DX2                !
 ! D4    D(3,1,4,6)            180.0            estimate D2E/DX2                !
 ! D5    D(1,4,5,13)           180.0            estimate D2E/DX2                !
 ! D6    D(6,4,5,13)             0.0            estimate D2E/DX2                !
 ! D7    D(1,4,6,7)              0.0            estimate D2E/DX2                !
 ! D8    D(1,4,6,8)            180.0            estimate D2E/DX2                !
 ! D9    D(5,4,6,7)            180.0            estimate D2E/DX2                !
 ! D10   D(5,4,6,8)              0.0            estimate D2E/DX2                !
 ! D11   D(4,5,13,12)            0.0            estimate D2E/DX2                !
 ! D12   D(4,6,8,9)            180.0            estimate D2E/DX2                !
 ! D13   D(4,6,8,10)             0.0            estimate D2E/DX2                !
 ! D14   D(7,6,8,9)              0.0            estimate D2E/DX2                !
 ! D15   D(7,6,8,10)           180.0            estimate D2E/DX2                !
 ! D16   D(6,8,10,11)          180.0            estimate D2E/DX2                !
 ! D17   D(6,8,10,12)            0.0            estimate D2E/DX2                !
 ! D18   D(9,8,10,11)            0.0            estimate D2E/DX2                !
 ! D19   D(9,8,10,12)          180.0            estimate D2E/DX2                !
 ! D20   D(8,10,12,13)           0.0            estimate D2E/DX2                !
 ! D21   D(8,10,12,14)         180.0            estimate D2E/DX2                !
 ! D22   D(11,10,12,13)        180.0            estimate D2E/DX2                !
 ! D23   D(11,10,12,14)          0.0            estimate D2E/DX2                !
 ! D24   D(10,12,13,5)           0.0            estimate D2E/DX2                !
 ! D25   D(14,12,13,5)         180.0            estimate D2E/DX2                !
 --------------------------------------------------------------------------------
 Trust Radius=3.00D-01 FncErr=1.00D-07 GrdErr=1.00D-06
 Number of steps in this run=     69 maximum allowed number of steps=    100.
 GradGradGradGradGradGradGradGradGradGradGradGradGradGradGradGradGradGrad

                          Input orientation:                          
 ---------------------------------------------------------------------
 Center     Atomic      Atomic             Coordinates (Angstroms)
 Number     Number       Type             X           Y           Z
 ---------------------------------------------------------------------
      1          6           0       -3.964113   -1.247004    3.022109
      2          1           0       -4.224264   -0.317737    3.484370
      3          1           0       -4.238010   -2.169914    3.489141
      4          6           0       -3.288911   -1.259068    1.847153
      5          1           0       -3.028760   -2.188335    1.384893
      6          6           0       -2.894704    0.069232    1.174977
      7          1           0       -3.154854    0.998499    1.637238
      8          6           0       -2.219442    0.065220    0.000000
      9          1           0       -1.945545    0.988130   -0.467031
     10          6           0       -1.845020   -1.272230   -0.665309
     11          1           0       -1.311865   -1.275397   -1.593014
     12          6           0       -2.188473   -2.445187   -0.079837
     13          1           0       -2.721656   -2.448377    0.847851
     14          1           0       -1.925562   -3.371286   -0.546868
 ---------------------------------------------------------------------
                    Distance matrix (angstroms):
                    1          2          3          4          5
     1  C    0.000000
     2  H    1.070000   0.000000
     3  H    1.070000   1.852234   0.000000
     4  C    1.355200   2.107479   2.103938   0.000000
     5  H    2.107479   3.055514   2.427032   1.070000   0.000000
     6  C    2.507591   2.692725   3.489068   1.540000   2.271265
     7  H    2.759539   2.507591   3.826436   2.271265   3.199295
     8  C    3.728131   4.038168   4.609181   2.511867   2.766123
     9  H    4.609181   4.744620   5.556972   3.494278   3.833133
    10  C    4.253029   4.877673   4.877673   2.897837   2.538468
    11  H    5.323025   5.931189   5.932182   3.967836   3.556559
    12  C    3.769697   4.623209   4.124801   2.516174   1.708066
    13  H    2.777480   3.707922   3.058313   1.653734   0.671080
    14  H    4.626648   5.555094   4.804173   3.471530   2.519548
                    6          7          8          9         10
     6  C    0.000000
     7  H    1.070000   0.000000
     8  C    1.355200   2.103938   0.000000
     9  H    2.107479   2.427032   1.070000   0.000000
    10  C    2.507591   3.489068   1.540000   2.271265   0.000000
    11  H    3.460518   4.359099   2.271265   2.606327   1.070000
    12  C    2.897521   3.967520   2.511867   3.463611   1.355200
    13  H    2.544663   3.562547   2.699859   3.760431   2.107479
    14  H    3.967512   5.037510   3.492135   4.360193   2.103938
                   11         12         13         14
    11  H    0.000000
    12  C    2.103938   0.000000
    13  H    3.053066   1.070000   0.000000
    14  H    2.421527   1.070000   1.852234   0.000000
 Stoichiometry    C6H8
 Framework group  CS[SG(C6H8)]
 Deg. of freedom    25
 Full point group                 CS      NOp   2
 Largest Abelian subgroup         CS      NOp   2
 Largest concise Abelian subgroup C1      NOp   1
                         Standard orientation:                         
 ---------------------------------------------------------------------
 Center     Atomic      Atomic             Coordinates (Angstroms)
 Number     Number       Type             X           Y           Z
 ---------------------------------------------------------------------
      1          6           0       -0.265803    2.430133    0.000000
      2          1           0       -1.278019    2.777005    0.000000
      3          1           0        0.539310    3.134897    0.000000
      4          6           0        0.000000    1.101255    0.000000
      5          1           0        1.012215    0.754383    0.000000
      6          6           0       -1.158761    0.086922    0.000000
      7          1           0       -2.170977    0.433793    0.000000
      8          6           0       -0.900858   -1.243512    0.000000
      9          1           0       -1.705971   -1.948276    0.000000
     10          6           0        0.555976   -1.742748    0.000000
     11          1           0        0.759603   -2.793193    0.000000
     12          6           0        1.580971   -0.856208    0.000000
     13          1           0        1.383587    0.195428    0.000000
     14          1           0        2.591107   -1.209088    0.000000
 ---------------------------------------------------------------------
 Rotational constants (GHZ):      6.8789306      2.6913649      1.9344975
 Standard basis: 6-31G(d) (6D, 7F)
 There are    82 symmetry adapted basis functions of A'  symmetry.
 There are    24 symmetry adapted basis functions of A"  symmetry.
 Integral buffers will be    131072 words long.
 Raffenetti 2 integral format.
 Two-electron integral symmetry is turned on.
   106 basis functions,   200 primitive gaussians,   106 cartesian basis functions
    22 alpha electrons       22 beta electrons
       nuclear repulsion energy       206.2163532551 Hartrees.
 NAtoms=   14 NActive=   14 NUniq=   14 SFac= 1.00D+00 NAtFMM=   60 NAOKFM=F Big=F
 One-electron integrals computed using PRISM.
 NBasis=   106 RedAO= T  NBF=    82    24
 NBsUse=   106 1.00D-06 NBFU=    82    24
 Harris functional with IExCor=  402 diagonalized for initial guess.
 ExpMin= 1.61D-01 ExpMax= 3.05D+03 ExpMxC= 4.57D+02 IAcc=1 IRadAn=         1 AccDes= 0.00D+00
 HarFok:  IExCor=  402 AccDes= 0.00D+00 IRadAn=         1 IDoV= 1
 ScaDFX=  1.000000  1.000000  1.000000  1.000000
 FoFCou: FMM=F IPFlag=           0 FMFlag=      100000 FMFlg1=           0
         NFxFlg=           0 DoJE=T BraDBF=F KetDBF=T FulRan=T
         Omega=  0.000000  0.000000  1.000000  0.000000  0.000000 ICntrl=     500 IOpCl=  0
         NMat0=    1 NMatS0=    1 NMatT0=    0 NMatD0=    1 NMtDS0=    0 NMtDT0=    0
         I1Cent=           4 NGrid=           0.
 Petite list used in FoFCou.
 Initial guess orbital symmetries:
       Occupied  (A') (A') (A') (A') (A') (A') (A') (A') (A') (A')
                 (A') (A') (A') (A') (A') (A') (A') (A') (A") (A')
                 (A") (A")
       Virtual   (A") (A") (A") (A') (A') (A') (A') (A') (A') (A')
                 (A') (A') (A') (A') (A') (A') (A') (A") (A') (A')
                 (A") (A') (A") (A') (A') (A") (A') (A") (A") (A')
                 (A') (A') (A') (A') (A') (A') (A') (A') (A') (A')
                 (A') (A') (A') (A') (A") (A') (A") (A') (A") (A")
                 (A') (A") (A') (A") (A') (A") (A') (A') (A') (A')
                 (A') (A") (A') (A") (A') (A') (A") (A') (A") (A')
                 (A") (A') (A') (A') (A') (A') (A') (A') (A') (A')
                 (A') (A') (A') (A')
 The electronic state of the initial guess is 1-A'.
 Requested convergence on RMS density matrix=1.00D-08 within 128 cycles.
 Requested convergence on MAX density matrix=1.00D-06.
 Requested convergence on             energy=1.00D-06.
 No special actions if energy rises.
 Keep R1 ints in memory in canonical form, NReq=17179284.
 Integral accuracy reduced to 1.0D-05 until final iterations.
 Initial convergence to 1.0D-05 achieved.  Increase integral accuracy.
 SCF Done:  E(RB3LYP) =  -233.216726039     A.U. after   14 cycles
             Convg  =    0.6308D-08             -V/T =  2.0077

 **********************************************************************

            Population analysis using the SCF density.

 **********************************************************************

 Orbital symmetries:
       Occupied  (A') (A') (A') (A') (A') (A') (A') (A') (A') (A')
                 (A') (A') (A') (A') (A') (A') (A') (A') (A") (A')
                 (A") (A")
       Virtual   (A") (A") (A") (A') (A') (A') (A') (A') (A') (A')
                 (A') (A') (A') (A') (A') (A') (A') (A") (A') (A')
                 (A") (A') (A") (A') (A") (A') (A') (A") (A") (A')
                 (A') (A') (A') (A') (A') (A') (A') (A') (A') (A')
                 (A') (A') (A') (A') (A') (A") (A') (A") (A') (A")
                 (A") (A") (A') (A") (A') (A") (A') (A') (A') (A')
                 (A') (A") (A') (A") (A') (A') (A") (A') (A") (A')
                 (A") (A') (A') (A') (A') (A') (A') (A') (A') (A')
                 (A') (A') (A') (A')
 The electronic state is 1-A'.
 Alpha  occ. eigenvalues --  -10.19517 -10.19470 -10.19264 -10.18581 -10.18305
 Alpha  occ. eigenvalues --  -10.15953  -0.83247  -0.75545  -0.73712  -0.66520
 Alpha  occ. eigenvalues --   -0.58136  -0.54682  -0.48262  -0.45648  -0.44460
 Alpha  occ. eigenvalues --   -0.41304  -0.37445  -0.35628  -0.32999  -0.26931
 Alpha  occ. eigenvalues --   -0.26884  -0.21477
 Alpha virt. eigenvalues --   -0.04660   0.04477   0.09272   0.09736   0.12110
 Alpha virt. eigenvalues --    0.14711   0.16795   0.17278   0.18891   0.19715
 Alpha virt. eigenvalues --    0.27242   0.31504   0.33613   0.33991   0.40131
 Alpha virt. eigenvalues --    0.47434   0.48811   0.51642   0.55358   0.56504
 Alpha virt. eigenvalues --    0.56726   0.58809   0.59959   0.63989   0.64637
 Alpha virt. eigenvalues --    0.64847   0.67803   0.68786   0.71192   0.79189
 Alpha virt. eigenvalues --    0.84895   0.86591   0.87405   0.88160   0.91849
 Alpha virt. eigenvalues --    0.92370   0.93323   0.95455   0.97370   1.05940
 Alpha virt. eigenvalues --    1.08697   1.10324   1.14460   1.22425   1.30798
 Alpha virt. eigenvalues --    1.32510   1.40787   1.40953   1.44937   1.46728
 Alpha virt. eigenvalues --    1.48301   1.53553   1.56362   1.67557   1.70536
 Alpha virt. eigenvalues --    1.73301   1.88850   1.90797   1.95800   2.00455
 Alpha virt. eigenvalues --    2.04781   2.07194   2.09928   2.16275   2.21459
 Alpha virt. eigenvalues --    2.25812   2.31417   2.33189   2.39096   2.42709
 Alpha virt. eigenvalues --    2.48991   2.57678   2.62896   2.68906   2.76826
 Alpha virt. eigenvalues --    2.82987   3.00416   3.07998   4.05233   4.10703
 Alpha virt. eigenvalues --    4.16310   4.21819   4.39865   4.50109
          Condensed to atoms (all electrons):
              1          2          3          4          5          6
     1  C    5.124856   0.360108   0.360322   0.570321  -0.002320  -0.039635
     2  H    0.360108   0.565336  -0.041483  -0.029845   0.004190  -0.009569
     3  H    0.360322  -0.041483   0.565753  -0.024576  -0.012722   0.004672
     4  C    0.570321  -0.029845  -0.024576   4.990966   0.431053   0.405931
     5  H   -0.002320   0.004190  -0.012722   0.431053   0.765448  -0.080560
     6  C   -0.039635  -0.009569   0.004672   0.405931  -0.080560   4.963337
     7  H   -0.007378   0.005923  -0.000049  -0.041666   0.005622   0.359117
     8  C    0.002640   0.000498  -0.000203  -0.013340   0.004619   0.616566
     9  H   -0.000157  -0.000012   0.000003   0.005404  -0.000437  -0.047540
    10  C    0.001486  -0.000028  -0.000036  -0.017424   0.012461  -0.034855
    11  H    0.000008  -0.000001   0.000000  -0.000988  -0.001552   0.004925
    12  C    0.008232  -0.000306   0.000554  -0.097343  -0.145724  -0.031910
    13  H   -0.006039  -0.000228   0.002265  -0.162699  -0.097288   0.023191
    14  H   -0.000317   0.000005  -0.000006   0.004618   0.008482   0.000956
              7          8          9         10         11         12
     1  C   -0.007378   0.002640  -0.000157   0.001486   0.000008   0.008232
     2  H    0.005923   0.000498  -0.000012  -0.000028  -0.000001  -0.000306
     3  H   -0.000049  -0.000203   0.000003  -0.000036   0.000000   0.000554
     4  C   -0.041666  -0.013340   0.005404  -0.017424  -0.000988  -0.097343
     5  H    0.005622   0.004619  -0.000437   0.012461  -0.001552  -0.145724
     6  C    0.359117   0.616566  -0.047540  -0.034855   0.004925  -0.031910
     7  H    0.592975  -0.043714  -0.007227   0.004470  -0.000205  -0.000701
     8  C   -0.043714   4.875082   0.358821   0.429766  -0.043302  -0.025244
     9  H   -0.007227   0.358821   0.602706  -0.044407  -0.003309   0.006150
    10  C    0.004470   0.429766  -0.044407   4.810133   0.363418   0.650016
    11  H   -0.000205  -0.043302  -0.003309   0.363418   0.599366  -0.051494
    12  C   -0.000701  -0.025244   0.006150   0.650016  -0.051494   5.267116
    13  H   -0.001413  -0.016721   0.000176  -0.065174   0.009391   0.425051
    14  H    0.000022   0.003749  -0.000139  -0.026110  -0.009221   0.332837
             13         14
     1  C   -0.006039  -0.000317
     2  H   -0.000228   0.000005
     3  H    0.002265  -0.000006
     4  C   -0.162699   0.004618
     5  H   -0.097288   0.008482
     6  C    0.023191   0.000956
     7  H   -0.001413   0.000022
     8  C   -0.016721   0.003749
     9  H    0.000176  -0.000139
    10  C   -0.065174  -0.026110
    11  H    0.009391  -0.009221
    12  C    0.425051   0.332837
    13  H    0.752998  -0.037357
    14  H   -0.037357   0.595799
 Mulliken atomic charges:
              1
     1  C   -0.372127
     2  H    0.145413
     3  H    0.145507
     4  C   -0.020413
     5  H    0.108727
     6  C   -0.134625
     7  H    0.134225
     8  C   -0.149218
     9  H    0.129969
    10  C   -0.083717
    11  H    0.132965
    12  C   -0.337234
    13  H    0.173846
    14  H    0.126681
 Sum of Mulliken atomic charges =   0.00000
 Mulliken charges with hydrogens summed into heavy atoms:
              1
     1  C   -0.081207
     4  C    0.088314
     6  C   -0.000400
     8  C   -0.019249
    10  C    0.049248
    12  C   -0.036706
 Sum of Mulliken charges with hydrogens summed into heavy atoms =   0.00000
 Electronic spatial extent (au):  <R**2>=            637.1578
 Charge=              0.0000 electrons
 Dipole moment (field-independent basis, Debye):
    X=             -0.1036    Y=              0.2631    Z=              0.0000  Tot=              0.2828
 Quadrupole moment (field-independent basis, Debye-Ang):
   XX=            -33.6108   YY=            -33.2225   ZZ=            -40.7338
   XY=              0.8589   XZ=              0.0000   YZ=              0.0000
 Traceless Quadrupole moment (field-independent basis, Debye-Ang):
   XX=              2.2449   YY=              2.6332   ZZ=             -4.8781
   XY=              0.8589   XZ=              0.0000   YZ=              0.0000
 Octapole moment (field-independent basis, Debye-Ang**2):
  XXX=             -2.7590  YYY=             -1.8414  ZZZ=              0.0000  XYY=             -0.2471
  XXY=              1.9033  XXZ=              0.0000  XZZ=              0.1292  YZZ=              0.1849
  YYZ=              0.0000  XYZ=              0.0000
 Hexadecapole moment (field-independent basis, Debye-Ang**3):
 XXXX=           -259.9363 YYYY=           -516.8293 ZZZZ=            -42.4741 XXXY=             36.8192
 XXXZ=              0.0000 YYYX=             40.0125 YYYZ=              0.0000 ZZZX=              0.0000
 ZZZY=              0.0000 XXYY=           -127.9347 XXZZ=            -58.2051 YYZZ=           -109.7509
 XXYZ=              0.0000 YYXZ=              0.0000 ZZXY=             15.0067
 N-N= 2.062163532551D+02 E-N=-9.519300130894D+02  KE= 2.314297930512D+02
 Symmetry A'   KE= 2.251493024108D+02
 Symmetry A"   KE= 6.280490640359D+00
 Calling FoFJK, ICntrl=      2127 FMM=F ISym2X=1 I1Cent= 0 IOpClX= 0 NMat=1 NMatS=1 NMatT=0.
 ***** Axes restored to original set *****
 -------------------------------------------------------------------
 Center     Atomic                   Forces (Hartrees/Bohr)
 Number     Number              X              Y              Z
 -------------------------------------------------------------------
      1        6           0.016193906    0.000525672   -0.028171464
      2        1          -0.005719990    0.008938082    0.010045010
      3        1          -0.005144403   -0.008060303    0.008867776
      4        6          -0.039434988    0.090485760    0.069551113
      5        1          -0.107476235    0.093290255    0.187969785
      6        6           0.004206407   -0.051986516   -0.007856458
      7        1          -0.005819367    0.007508897    0.010203148
      8        6           0.000924387   -0.043660396   -0.002059767
      9        1           0.004278273    0.008644691   -0.007354695
     10        6          -0.022693049    0.019314068    0.039684878
     11        1           0.006220819    0.003761868   -0.010785144
     12        6           0.040654986   -0.013195101   -0.070874838
     13        1           0.108888410   -0.104151414   -0.190539211
     14        1           0.004920845   -0.011415564   -0.008680134
 -------------------------------------------------------------------
 Cartesian Forces:  Max     0.190539211 RMS     0.058830481

 GradGradGradGradGradGradGradGradGradGradGradGradGradGradGradGradGradGrad
 Berny optimization.
 Internal  Forces:  Max     0.299909097 RMS     0.043659532
 Search for a local minimum.
 Step number   1 out of a maximum of   69
 All quantities printed in internal units (Hartrees-Bohrs-Radians)
 Mixed Optimization -- RFO/linear search
 Second derivative matrix not updated -- first step.
 ITU=  0
     Eigenvalues ---    0.00374   0.00377   0.00951   0.01075   0.01339
     Eigenvalues ---    0.01460   0.01671   0.02015   0.02200   0.02681
     Eigenvalues ---    0.02681   0.16000   0.16000   0.16000   0.16000
     Eigenvalues ---    0.16000   0.16000   0.16000   0.16138   0.18692
     Eigenvalues ---    0.21689   0.22000   0.27788   0.28273   0.35987
     Eigenvalues ---    0.36728   0.37230   0.37230   0.37230   0.37230
     Eigenvalues ---    0.37230   0.37230   0.48603   0.51746   0.53372
     Eigenvalues ---    0.53930
 RFO step:  Lambda=-1.81140802D-01 EMin= 3.74300846D-03
 Linear search not attempted -- first point.
 Maximum step size (   0.300) exceeded in Quadratic search.
    -- Step size scaled by   0.546
 Iteration  1 RMS(Cart)=  0.06687069 RMS(Int)=  0.00577830
 Iteration  2 RMS(Cart)=  0.00804277 RMS(Int)=  0.00018309
 Iteration  3 RMS(Cart)=  0.00001567 RMS(Int)=  0.00018279
 Iteration  4 RMS(Cart)=  0.00000000 RMS(Int)=  0.00018279
 ClnCor:  largest displacement from symmetrization is 1.44D-08 for atom    14.
 Variable       Old X    -DE/DX   Delta X   Delta X   Delta X     New X
                                 (Linear)    (Quad)   (Total)
    R1        2.02201   0.01350   0.00000   0.01330   0.01330   2.03531
    R2        2.02201   0.01214   0.00000   0.01196   0.01196   2.03397
    R3        2.56096  -0.01067   0.00000  -0.00808  -0.00808   2.55288
    R4        2.02201   0.05710   0.00000   0.06169   0.06141   2.08341
    R5        2.91018  -0.04260   0.00000  -0.05064  -0.05072   2.85946
    R6        1.26816   0.29991   0.00000   0.24507   0.24481   1.51297
    R7        2.02201   0.01234   0.00000   0.01217   0.01217   2.03417
    R8        2.56096   0.01695   0.00000   0.00818   0.00838   2.56933
    R9        2.02201   0.01176   0.00000   0.01159   0.01159   2.03360
   R10        2.91018  -0.01592   0.00000  -0.02504  -0.02475   2.88543
   R11        2.02201   0.01244   0.00000   0.01226   0.01226   2.03427
   R12        2.56096  -0.01868   0.00000  -0.01366  -0.01355   2.54741
   R13        2.02201   0.05219   0.00000   0.05748   0.05730   2.07930
   R14        2.02201   0.01488   0.00000   0.01467   0.01467   2.03667
    A1        2.09241  -0.00699   0.00000  -0.01118  -0.01118   2.08123
    A2        2.09836   0.00434   0.00000   0.00694   0.00694   2.10530
    A3        2.09241   0.00265   0.00000   0.00424   0.00424   2.09665
    A4        2.09836   0.02272   0.00000   0.03506   0.03523   2.13358
    A5        2.09241   0.02053   0.00000   0.02498   0.02514   2.11756
    A6        2.09241  -0.04325   0.00000  -0.06004  -0.06037   2.03204
    A7        2.48737  -0.00338   0.00000   0.01771   0.01710   2.50448
    A8        2.09241  -0.02319   0.00000  -0.02718  -0.02728   2.06513
    A9        2.09836   0.03328   0.00000   0.03343   0.03363   2.13199
   A10        2.09241  -0.01009   0.00000  -0.00625  -0.00635   2.08607
   A11        2.09836  -0.02366   0.00000  -0.02230  -0.02259   2.07576
   A12        2.09241   0.05333   0.00000   0.05421   0.05479   2.14721
   A13        2.09241  -0.02967   0.00000  -0.03191  -0.03220   2.06022
   A14        2.09241  -0.01454   0.00000  -0.01672  -0.01697   2.07545
   A15        2.09836   0.02140   0.00000   0.02117   0.02167   2.12003
   A16        2.09241  -0.00686   0.00000  -0.00445  -0.00470   2.08771
   A17        2.09836  -0.04242   0.00000  -0.05882  -0.05877   2.03958
   A18        2.09241   0.01826   0.00000   0.02470   0.02468   2.11709
   A19        2.09241   0.02416   0.00000   0.03412   0.03410   2.12651
   A20        2.74069  -0.01896   0.00000  -0.00765  -0.00805   2.73264
    D1        3.14159   0.00000   0.00000   0.00000   0.00000   3.14159
    D2        0.00000   0.00000   0.00000   0.00000   0.00000   0.00000
    D3        0.00000   0.00000   0.00000   0.00000   0.00000   0.00000
    D4        3.14159   0.00000   0.00000   0.00000   0.00000  -3.14159
    D5        3.14159   0.00000   0.00000   0.00000   0.00000   3.14159
    D6        0.00000   0.00000   0.00000   0.00000   0.00000   0.00000
    D7        0.00000   0.00000   0.00000   0.00000   0.00000   0.00000
    D8        3.14159   0.00000   0.00000   0.00000   0.00000   3.14159
    D9        3.14159   0.00000   0.00000   0.00000   0.00000  -3.14159
   D10        0.00000   0.00000   0.00000   0.00000   0.00000   0.00000
   D11        0.00000   0.00000   0.00000   0.00000   0.00000   0.00000
   D12        3.14159   0.00000   0.00000   0.00000   0.00000   3.14159
   D13        0.00000   0.00000   0.00000   0.00000   0.00000   0.00000
   D14        0.00000   0.00000   0.00000   0.00000   0.00000   0.00000
   D15        3.14159   0.00000   0.00000   0.00000   0.00000   3.14159
   D16       -3.14159   0.00000   0.00000   0.00000   0.00000   3.14159
   D17        0.00000   0.00000   0.00000   0.00000   0.00000   0.00000
   D18        0.00000   0.00000   0.00000   0.00000   0.00000   0.00000
   D19        3.14159   0.00000   0.00000   0.00000   0.00000   3.14159
   D20        0.00000   0.00000   0.00000   0.00000   0.00000   0.00000
   D21        3.14159   0.00000   0.00000   0.00000   0.00000   3.14159
   D22       -3.14159   0.00000   0.00000   0.00000   0.00000  -3.14159
   D23        0.00000   0.00000   0.00000   0.00000   0.00000   0.00000
   D24        0.00000   0.00000   0.00000   0.00000   0.00000   0.00000
   D25        3.14159   0.00000   0.00000   0.00000   0.00000   3.14159
         Item               Value     Threshold  Converged?
 Maximum Force            0.299909     0.000450     NO 
 RMS     Force            0.043660     0.000300     NO 
 Maximum Displacement     0.242755     0.001800     NO 
 RMS     Displacement     0.074492     0.001200     NO 
 Predicted change in Energy=-8.003595D-02
 GradGradGradGradGradGradGradGradGradGradGradGradGradGradGradGradGradGrad

                          Input orientation:                          
 ---------------------------------------------------------------------
 Center     Atomic      Atomic             Coordinates (Angstroms)
 Number     Number       Type             X           Y           Z
 ---------------------------------------------------------------------
      1          6           0       -3.996195   -1.192596    3.078493
      2          1           0       -4.251273   -0.249612    3.532070
      3          1           0       -4.283402   -2.106720    3.568775
      4          6           0       -3.323533   -1.233477    1.907659
      5          1           0       -3.048861   -2.183297    1.419919
      6          6           0       -2.906538    0.034666    1.195210
      7          1           0       -3.159204    0.979610    1.644610
      8          6           0       -2.229227    0.013131    0.016487
      9          1           0       -1.958242    0.946578   -0.445367
     10          6           0       -1.830487   -1.280067   -0.690677
     11          1           0       -1.294653   -1.219903   -1.622390
     12          6           0       -2.134685   -2.487361   -0.173863
     13          1           0       -2.682986   -2.495930    0.780075
     14          1           0       -1.851894   -3.398476   -0.675329
 ---------------------------------------------------------------------
                    Distance matrix (angstroms):
                    1          2          3          4          5
     1  C    0.000000
     2  H    1.077040   0.000000
     3  H    1.076331   1.857748   0.000000
     4  C    1.350925   2.113623   2.107892   0.000000
     5  H    2.151697   3.105819   2.479423   1.102494   0.000000
     6  C    2.498054   2.711096   3.480674   1.513160   2.233855
     7  H    2.734054   2.503219   3.806791   2.234715   3.172797
     8  C    3.735215   4.064114   4.618674   2.515565   2.732346
     9  H    4.598576   4.744351   5.553587   3.486171   3.803269
    10  C    4.347940   4.975302   4.984283   2.997116   2.599014
    11  H    5.421934   6.020924   6.055349   4.071582   3.641568
    12  C    3.964777   4.818860   4.332345   2.705239   1.862341
    13  H    2.950580   3.883162   3.238775   1.809844   0.800627
    14  H    4.853361   5.777073   5.058980   3.677604   2.701750
                    6          7          8          9         10
     6  C    0.000000
     7  H    1.076439   0.000000
     8  C    1.359633   2.109437   0.000000
     9  H    2.102937   2.410686   1.076135   0.000000
    10  C    2.538302   3.510725   1.526904   2.243757   0.000000
    11  H    3.480084   4.357487   2.253823   2.553306   1.076489
    12  C    2.971656   4.046773   2.509508   3.449171   1.348032
    13  H    2.574146   3.612974   2.661644   3.725295   2.090021
    14  H    4.049401   5.124335   3.501435   4.352434   2.118573
                   11         12         13         14
    11  H    0.000000
    12  C    2.100079   0.000000
    13  H    3.054104   1.100321   0.000000
    14  H    2.440005   1.077761   1.903550   0.000000
 Stoichiometry    C6H8
 Framework group  CS[SG(C6H8)]
 Deg. of freedom    25
 Full point group                 CS      NOp   2
 Largest Abelian subgroup         CS      NOp   2
 Largest concise Abelian subgroup C1      NOp   1
                         Standard orientation:                         
 ---------------------------------------------------------------------
 Center     Atomic      Atomic             Coordinates (Angstroms)
 Number     Number       Type             X           Y           Z
 ---------------------------------------------------------------------
      1          6           0        2.433560    0.576107    0.000000
      2          1           0        2.666907    1.627565    0.000000
      3          1           0        3.236456   -0.140723    0.000000
      4          6           0        1.149572    0.156138    0.000000
      5          1           0        0.880368   -0.912984    0.000000
      6          6           0        0.000000    1.140077    0.000000
      7          1           0        0.228167    2.192056    0.000000
      8          6           0       -1.298227    0.736087    0.000000
      9          1           0       -2.075169    1.480686    0.000000
     10          6           0       -1.712445   -0.733559    0.000000
     11          1           0       -2.760603   -0.978898    0.000000
     12          6           0       -0.796691   -1.722793    0.000000
     13          1           0        0.261367   -1.420766    0.000000
     14          1           0       -1.092108   -2.759276    0.000000
 ---------------------------------------------------------------------
 Rotational constants (GHZ):      7.0804343      2.5256399      1.8615958
 Standard basis: 6-31G(d) (6D, 7F)
 There are    82 symmetry adapted basis functions of A'  symmetry.
 There are    24 symmetry adapted basis functions of A"  symmetry.
 Integral buffers will be    131072 words long.
 Raffenetti 2 integral format.
 Two-electron integral symmetry is turned on.
   106 basis functions,   200 primitive gaussians,   106 cartesian basis functions
    22 alpha electrons       22 beta electrons
       nuclear repulsion energy       204.2132744817 Hartrees.
 NAtoms=   14 NActive=   14 NUniq=   14 SFac= 1.00D+00 NAtFMM=   60 NAOKFM=F Big=F
 One-electron integrals computed using PRISM.
 NBasis=   106 RedAO= T  NBF=    82    24
 NBsUse=   106 1.00D-06 NBFU=    82    24
 Initial guess read from the read-write file.
 B after Tr=     0.000000    0.000000    0.000000
         Rot=    1.000000    0.000000    0.000000    0.000000 Ang=   0.00 deg.
 Initial guess orbital symmetries:
       Occupied  (A') (A') (A') (A') (A') (A') (A') (A') (A') (A')
                 (A') (A') (A') (A') (A') (A') (A') (A') (A") (A')
                 (A") (A")
       Virtual   (A") (A") (A") (A') (A') (A') (A') (A') (A') (A')
                 (A') (A') (A') (A') (A') (A') (A') (A") (A') (A')
                 (A") (A') (A") (A') (A") (A') (A') (A") (A") (A')
                 (A') (A') (A') (A') (A') (A') (A') (A') (A') (A')
                 (A') (A') (A') (A') (A') (A") (A') (A") (A') (A")
                 (A") (A") (A') (A") (A') (A") (A') (A') (A') (A')
                 (A') (A") (A') (A") (A') (A') (A") (A') (A") (A')
                 (A") (A') (A') (A') (A') (A') (A') (A') (A') (A')
                 (A') (A') (A') (A')
 Harris functional with IExCor=  402 diagonalized for initial guess.
 ExpMin= 1.61D-01 ExpMax= 3.05D+03 ExpMxC= 4.57D+02 IAcc=1 IRadAn=         1 AccDes= 0.00D+00
 HarFok:  IExCor=  402 AccDes= 0.00D+00 IRadAn=         1 IDoV= 1
 ScaDFX=  1.000000  1.000000  1.000000  1.000000
 FoFCou: FMM=F IPFlag=           0 FMFlag=      100000 FMFlg1=           0
         NFxFlg=           0 DoJE=T BraDBF=F KetDBF=T FulRan=T
         Omega=  0.000000  0.000000  1.000000  0.000000  0.000000 ICntrl=     500 IOpCl=  0
         NMat0=    1 NMatS0=    1 NMatT0=    0 NMatD0=    1 NMtDS0=    0 NMtDT0=    0
         I1Cent=           4 NGrid=           0.
 Petite list used in FoFCou.
 Requested convergence on RMS density matrix=1.00D-08 within 128 cycles.
 Requested convergence on MAX density matrix=1.00D-06.
 Requested convergence on             energy=1.00D-06.
 No special actions if energy rises.
 Keep R1 ints in memory in canonical form, NReq=17179291.
 Integral accuracy reduced to 1.0D-05 until final iterations.
 Initial convergence to 1.0D-05 achieved.  Increase integral accuracy.
 SCF Done:  E(RB3LYP) =  -233.290529486     A.U. after   15 cycles
             Convg  =    0.3747D-08             -V/T =  2.0091
 Calling FoFJK, ICntrl=      2127 FMM=F ISym2X=1 I1Cent= 0 IOpClX= 0 NMat=1 NMatS=1 NMatT=0.
 ***** Axes restored to original set *****
 -------------------------------------------------------------------
 Center     Atomic                   Forces (Hartrees/Bohr)
 Number     Number              X              Y              Z
 -------------------------------------------------------------------
      1        6           0.011415945   -0.003312578   -0.019897639
      2        1          -0.003465296    0.005071991    0.006081943
      3        1          -0.003645909   -0.003935271    0.006303086
      4        6          -0.016575596    0.049605129    0.029353848
      5        1          -0.062911977    0.062402075    0.110110023
      6        6           0.003182424   -0.037942650   -0.005929573
      7        1          -0.003339170    0.005494511    0.005866856
      8        6           0.001093464   -0.032331135   -0.002236834
      9        1           0.002862358    0.005580453   -0.004922724
     10        6          -0.016274301    0.017503535    0.028497736
     11        1           0.003969770    0.004533963   -0.006860405
     12        6           0.016093620   -0.003173646   -0.028035214
     13        1           0.065841455   -0.063621898   -0.115219836
     14        1           0.001753213   -0.005874479   -0.003111267
 -------------------------------------------------------------------
 Cartesian Forces:  Max     0.115219836 RMS     0.034900171

 GradGradGradGradGradGradGradGradGradGradGradGradGradGradGradGradGradGrad
 Berny optimization.
 Using GEDIIS/GDIIS optimizer.
 Internal  Forces:  Max     0.164882558 RMS     0.023750986
 Search for a local minimum.
 Step number   2 out of a maximum of   69
 All quantities printed in internal units (Hartrees-Bohrs-Radians)
 Mixed Optimization -- RFO/linear search
 Update second derivatives using D2CorX and points    1    2
 DE= -7.38D-02 DEPred=-8.00D-02 R= 9.22D-01
 SS=  1.41D+00  RLast= 3.00D-01 DXNew= 5.0454D-01 8.9997D-01
 Trust test= 9.22D-01 RLast= 3.00D-01 DXMaxT set to 5.05D-01
 ITU=  1  0
 Use linear search instead of GDIIS.
 Linear search step of   0.600 exceeds DXMaxT=   0.505 but not scaled.
 Quartic linear search produced a step of  2.00000.
 Iteration  1 RMS(Cart)=  0.10178322 RMS(Int)=  0.03685896
 Iteration  2 RMS(Cart)=  0.03760889 RMS(Int)=  0.00995082
 Iteration  3 RMS(Cart)=  0.01331502 RMS(Int)=  0.00117296
 Iteration  4 RMS(Cart)=  0.00003977 RMS(Int)=  0.00117262
 Iteration  5 RMS(Cart)=  0.00000003 RMS(Int)=  0.00117262
 ClnCor:  largest displacement from symmetrization is 2.66D-08 for atom     5.
 Variable       Old X    -DE/DX   Delta X   Delta X   Delta X     New X
                                 (Linear)    (Quad)   (Total)
    R1        2.03531   0.00782   0.02661   0.00000   0.02661   2.06192
    R2        2.03397   0.00719   0.02393   0.00000   0.02393   2.05790
    R3        2.55288  -0.00872  -0.01616   0.00000  -0.01616   2.53672
    R4        2.08341   0.01929   0.12281   0.00000   0.12097   2.20438
    R5        2.85946  -0.02993  -0.10144   0.00000  -0.10161   2.75785
    R6        1.51297   0.16488   0.48962   0.00000   0.48784   2.00081
    R7        2.03417   0.00806   0.02433   0.00000   0.02433   2.05851
    R8        2.56933   0.00340   0.01675   0.00000   0.01818   2.58751
    R9        2.03360   0.00767   0.02319   0.00000   0.02319   2.05679
   R10        2.88543  -0.02066  -0.04950   0.00000  -0.04762   2.83781
   R11        2.03427   0.00817   0.02452   0.00000   0.02452   2.05879
   R12        2.54741  -0.00828  -0.02709   0.00000  -0.02629   2.52112
   R13        2.07930   0.01580   0.11460   0.00000   0.11326   2.19256
   R14        2.03667   0.00687   0.02933   0.00000   0.02933   2.06601
    A1        2.08123  -0.00528  -0.02236   0.00000  -0.02236   2.05887
    A2        2.10530   0.00221   0.01388   0.00000   0.01388   2.11918
    A3        2.09665   0.00307   0.00848   0.00000   0.00848   2.10513
    A4        2.13358   0.00889   0.07045   0.00000   0.07143   2.20501
    A5        2.11756   0.01294   0.05029   0.00000   0.05127   2.16882
    A6        2.03204  -0.02184  -0.12074   0.00000  -0.12269   1.90935
    A7        2.50448  -0.00178   0.03421   0.00000   0.03025   2.53473
    A8        2.06513  -0.01295  -0.05457   0.00000  -0.05533   2.00980
    A9        2.13199   0.01920   0.06726   0.00000   0.06878   2.20077
   A10        2.08607  -0.00625  -0.01269   0.00000  -0.01346   2.07261
   A11        2.07576  -0.01160  -0.04519   0.00000  -0.04703   2.02873
   A12        2.14721   0.02760   0.10958   0.00000   0.11326   2.26047
   A13        2.06022  -0.01599  -0.06439   0.00000  -0.06623   1.99399
   A14        2.07545  -0.01035  -0.03394   0.00000  -0.03549   2.03996
   A15        2.12003   0.01238   0.04334   0.00000   0.04645   2.16647
   A16        2.08771  -0.00203  -0.00940   0.00000  -0.01096   2.07676
   A17        2.03958  -0.02131  -0.11755   0.00000  -0.11733   1.92225
   A18        2.11709   0.01077   0.04935   0.00000   0.04925   2.16634
   A19        2.12651   0.01054   0.06819   0.00000   0.06809   2.19460
   A20        2.73264  -0.01424  -0.01610   0.00000  -0.01872   2.71392
    D1        3.14159   0.00000   0.00000   0.00000   0.00000   3.14159
    D2        0.00000   0.00000   0.00000   0.00000   0.00000   0.00000
    D3        0.00000   0.00000   0.00000   0.00000   0.00000   0.00000
    D4        3.14159   0.00000   0.00000   0.00000   0.00000   3.14159
    D5        3.14159   0.00000   0.00000   0.00000   0.00000   3.14159
    D6        0.00000   0.00000   0.00000   0.00000   0.00000   0.00000
    D7        0.00000   0.00000   0.00000   0.00000   0.00000   0.00000
    D8        3.14159   0.00000   0.00000   0.00000   0.00000   3.14159
    D9        3.14159   0.00000   0.00000   0.00000   0.00000   3.14159
   D10        0.00000   0.00000   0.00000   0.00000   0.00000   0.00000
   D11        0.00000   0.00000   0.00000   0.00000   0.00000   0.00000
   D12        3.14159   0.00000   0.00000   0.00000   0.00000   3.14159
   D13        0.00000   0.00000   0.00000   0.00000   0.00000   0.00000
   D14        0.00000   0.00000   0.00000   0.00000   0.00000   0.00000
   D15        3.14159   0.00000   0.00000   0.00000   0.00000   3.14159
   D16        3.14159   0.00000   0.00000   0.00000   0.00000   3.14159
   D17        0.00000   0.00000   0.00000   0.00000   0.00000   0.00000
   D18        0.00000   0.00000   0.00000   0.00000   0.00000   0.00000
   D19        3.14159   0.00000   0.00000   0.00000   0.00000  -3.14159
   D20        0.00000   0.00000   0.00000   0.00000   0.00000   0.00000
   D21        3.14159   0.00000   0.00000   0.00000   0.00000   3.14159
   D22        3.14159   0.00000   0.00000   0.00000   0.00000   3.14159
   D23        0.00000   0.00000   0.00000   0.00000   0.00000   0.00000
   D24        0.00000   0.00000   0.00000   0.00000   0.00000   0.00000
   D25        3.14159   0.00000   0.00000   0.00000   0.00000   3.14159
         Item               Value     Threshold  Converged?
 Maximum Force            0.164883     0.000450     NO 
 RMS     Force            0.023751     0.000300     NO 
 Maximum Displacement     0.493679     0.001800     NO 
 RMS     Displacement     0.149408     0.001200     NO 
 Predicted change in Energy=-1.466486D-02
 GradGradGradGradGradGradGradGradGradGradGradGradGradGradGradGradGradGrad

                          Input orientation:                          
 ---------------------------------------------------------------------
 Center     Atomic      Atomic             Coordinates (Angstroms)
 Number     Number       Type             X           Y           Z
 ---------------------------------------------------------------------
      1          6           0       -4.057250   -1.080909    3.185881
      2          1           0       -4.300446   -0.109447    3.619079
      3          1           0       -4.372106   -1.973469    3.724494
      4          6           0       -3.390726   -1.182422    2.025101
      5          1           0       -3.087118   -2.171658    1.486605
      6          6           0       -2.931932   -0.041919    1.238605
      7          1           0       -3.167601    0.935085    1.658762
      8          6           0       -2.250567   -0.101803    0.052430
      9          1           0       -1.985491    0.852469   -0.398928
     10          6           0       -1.805503   -1.300963   -0.734363
     11          1           0       -1.270236   -1.109389   -1.663731
     12          6           0       -2.026054   -2.563425   -0.363663
     13          1           0       -2.604169   -2.589243    0.641973
     14          1           0       -1.701977   -3.436361   -0.936573
 ---------------------------------------------------------------------
                    Distance matrix (angstroms):
                    1          2          3          4          5
     1  C    0.000000
     2  H    1.091120   0.000000
     3  H    1.088992   1.868375   0.000000
     4  C    1.342374   2.125942   2.115845   0.000000
     5  H    2.240185   3.205047   2.588170   1.166509   0.000000
     6  C    2.477443   2.746643   3.461883   1.459389   2.149738
     7  H    2.681007   2.493437   3.765338   2.160515   3.112550
     8  C    3.747168   4.113763   4.635528   2.521733   2.653484
     9  H    4.569572   4.735893   5.539357   3.462858   3.730169
    10  C    4.526268   5.157219   5.188558   3.184593   2.708016
    11  H    5.593478   6.171721   6.277038   4.255502   3.788679
    12  C    4.350043   5.201644   4.750267   3.078262   2.168601
    13  H    3.295146   4.229646   3.606483   2.123879   1.058783
    14  H    5.300008   6.210826   5.567332   4.087007   3.064291
                    6          7          8          9         10
     6  C    0.000000
     7  H    1.089316   0.000000
     8  C    1.369254   2.120470   0.000000
     9  H    2.092175   2.374510   1.088404   0.000000
    10  C    2.597429   3.547149   1.501702   2.186819   0.000000
    11  H    3.510595   4.338067   2.218442   2.441353   1.089466
    12  C    3.121837   4.199155   2.506616   3.416317   1.334119
    13  H    2.636713   3.711092   2.580688   3.648509   2.047397
    14  H    4.215023   5.290874   3.521129   4.331685   2.147448
                   11         12         13         14
    11  H    0.000000
    12  C    2.091807   0.000000
    13  H    3.047230   1.160253   0.000000
    14  H    2.475874   1.093283   2.005833   0.000000
 Stoichiometry    C6H8
 Framework group  CS[SG(C6H8)]
 Deg. of freedom    25
 Full point group                 CS      NOp   2
 Largest Abelian subgroup         CS      NOp   2
 Largest concise Abelian subgroup C1      NOp   1
                         Standard orientation:                         
 ---------------------------------------------------------------------
 Center     Atomic      Atomic             Coordinates (Angstroms)
 Number     Number       Type             X           Y           Z
 ---------------------------------------------------------------------
      1          6           0        2.466301    0.858636    0.000000
      2          1           0        2.612940    1.939858    0.000000
      3          1           0        3.350783    0.223345    0.000000
      4          6           0        1.237108    0.319143    0.000000
      5          1           0        0.981827   -0.819090    0.000000
      6          6           0        0.000000    1.093340    0.000000
      7          1           0        0.130596    2.174799    0.000000
      8          6           0       -1.270743    0.583372    0.000000
      9          1           0       -2.080906    1.310187    0.000000
     10          6           0       -1.726038   -0.847647    0.000000
     11          1           0       -2.801392   -1.022430    0.000000
     12          6           0       -0.900618   -1.895766    0.000000
     13          1           0        0.202318   -1.535600    0.000000
     14          1           0       -1.232224   -2.937546    0.000000
 ---------------------------------------------------------------------
 Rotational constants (GHZ):      7.6815301      2.2280649      1.7271087
 Standard basis: 6-31G(d) (6D, 7F)
 There are    82 symmetry adapted basis functions of A'  symmetry.
 There are    24 symmetry adapted basis functions of A"  symmetry.
 Integral buffers will be    131072 words long.
 Raffenetti 2 integral format.
 Two-electron integral symmetry is turned on.
   106 basis functions,   200 primitive gaussians,   106 cartesian basis functions
    22 alpha electrons       22 beta electrons
       nuclear repulsion energy       201.0541427681 Hartrees.
 NAtoms=   14 NActive=   14 NUniq=   14 SFac= 1.00D+00 NAtFMM=   60 NAOKFM=F Big=F
 One-electron integrals computed using PRISM.
 NBasis=   106 RedAO= T  NBF=    82    24
 NBsUse=   106 1.00D-06 NBFU=    82    24
 Initial guess read from the read-write file.
 B after Tr=     0.000000    0.000000    0.000000
         Rot=    1.000000    0.000000    0.000000    0.000000 Ang=   0.00 deg.
 Initial guess orbital symmetries:
       Occupied  (A') (A') (A') (A') (A') (A') (A') (A') (A') (A')
                 (A') (A') (A') (A') (A') (A') (A') (A') (A") (A')
                 (A") (A")
       Virtual   (A") (A") (A') (A") (A') (A') (A') (A') (A') (A')
                 (A') (A') (A') (A') (A') (A') (A') (A") (A') (A')
                 (A") (A') (A") (A') (A") (A') (A') (A") (A") (A')
                 (A') (A') (A') (A') (A') (A') (A') (A') (A') (A')
                 (A') (A') (A') (A') (A') (A") (A') (A") (A') (A")
                 (A") (A") (A') (A") (A') (A") (A') (A') (A') (A')
                 (A') (A") (A') (A") (A') (A') (A') (A") (A') (A")
                 (A") (A') (A') (A') (A') (A') (A') (A') (A') (A')
                 (A') (A') (A') (A')
 Harris functional with IExCor=  402 diagonalized for initial guess.
 ExpMin= 1.61D-01 ExpMax= 3.05D+03 ExpMxC= 4.57D+02 IAcc=1 IRadAn=         1 AccDes= 0.00D+00
 HarFok:  IExCor=  402 AccDes= 0.00D+00 IRadAn=         1 IDoV= 1
 ScaDFX=  1.000000  1.000000  1.000000  1.000000
 FoFCou: FMM=F IPFlag=           0 FMFlag=      100000 FMFlg1=           0
         NFxFlg=           0 DoJE=T BraDBF=F KetDBF=T FulRan=T
         Omega=  0.000000  0.000000  1.000000  0.000000  0.000000 ICntrl=     500 IOpCl=  0
         NMat0=    1 NMatS0=    1 NMatT0=    0 NMatD0=    1 NMtDS0=    0 NMtDT0=    0
         I1Cent=           4 NGrid=           0.
 Petite list used in FoFCou.
 Requested convergence on RMS density matrix=1.00D-08 within 128 cycles.
 Requested convergence on MAX density matrix=1.00D-06.
 Requested convergence on             energy=1.00D-06.
 No special actions if energy rises.
 Keep R1 ints in memory in canonical form, NReq=17179291.
 Integral accuracy reduced to 1.0D-05 until final iterations.
 Initial convergence to 1.0D-05 achieved.  Increase integral accuracy.
 SCF Done:  E(RB3LYP) =  -233.345107878     A.U. after   13 cycles
             Convg  =    0.8588D-08             -V/T =  2.0106
 Calling FoFJK, ICntrl=      2127 FMM=F ISym2X=1 I1Cent= 0 IOpClX= 0 NMat=1 NMatS=1 NMatT=0.
 ***** Axes restored to original set *****
 -------------------------------------------------------------------
 Center     Atomic                   Forces (Hartrees/Bohr)
 Number     Number              X              Y              Z
 -------------------------------------------------------------------
      1        6           0.001572548   -0.008199812   -0.002820955
      2        1           0.000346342   -0.002312799   -0.000626535
      3        1          -0.000568559    0.003296808    0.001023358
      4        6           0.011167515   -0.013553461   -0.019571250
      5        1          -0.035051562    0.043206272    0.061435310
      6        6           0.004663096   -0.004198524   -0.008157049
      7        1           0.001260344    0.002067698   -0.002171583
      8        6           0.000493745   -0.008673131   -0.000948764
      9        1           0.000112674   -0.000079641   -0.000196872
     10        6          -0.003292716    0.018812405    0.005923707
     11        1          -0.000142108    0.004540426    0.000294203
     12        6          -0.015400097   -0.001215768    0.026783128
     13        1           0.038464269   -0.036826691   -0.067307362
     14        1          -0.003625491    0.003136218    0.006340665
 -------------------------------------------------------------------
 Cartesian Forces:  Max     0.067307362 RMS     0.019913818

 GradGradGradGradGradGradGradGradGradGradGradGradGradGradGradGradGradGrad
 Berny optimization.
 Using GEDIIS/GDIIS optimizer.
 Internal  Forces:  Max     0.052203286 RMS     0.009967930
 Search for a local minimum.
 Step number   3 out of a maximum of   69
 All quantities printed in internal units (Hartrees-Bohrs-Radians)
 Mixed Optimization -- RFO/linear search
 Update second derivatives using D2CorX and points    2    3
 ITU=  0  1  0
 Use linear search instead of GDIIS.
     Eigenvalues ---    0.00364   0.00373   0.00993   0.01126   0.01464
     Eigenvalues ---    0.01484   0.01610   0.02056   0.02211   0.02681
     Eigenvalues ---    0.02681   0.15849   0.16000   0.16000   0.16000
     Eigenvalues ---    0.16000   0.16000   0.16008   0.17338   0.19236
     Eigenvalues ---    0.21798   0.21904   0.23283   0.28430   0.29211
     Eigenvalues ---    0.36838   0.37096   0.37230   0.37230   0.37230
     Eigenvalues ---    0.37230   0.37248   0.40298   0.52841   0.53035
     Eigenvalues ---    0.53933
 RFO step:  Lambda=-1.98638186D-02 EMin= 3.64133589D-03
 Quartic linear search produced a step of  0.35232.
 Iteration  1 RMS(Cart)=  0.03568263 RMS(Int)=  0.01389850
 Iteration  2 RMS(Cart)=  0.01829205 RMS(Int)=  0.00043191
 Iteration  3 RMS(Cart)=  0.00007643 RMS(Int)=  0.00042884
 Iteration  4 RMS(Cart)=  0.00000002 RMS(Int)=  0.00042884
 ClnCor:  largest displacement from symmetrization is 4.27D-08 for atom     7.
 Variable       Old X    -DE/DX   Delta X   Delta X   Delta X     New X
                                 (Linear)    (Quad)   (Total)
    R1        2.06192  -0.00239   0.00937  -0.00832   0.00105   2.06297
    R2        2.05790  -0.00203   0.00843  -0.00723   0.00120   2.05910
    R3        2.53672  -0.00331  -0.00569  -0.00618  -0.01187   2.52485
    R4        2.20438  -0.02881   0.04262  -0.08489  -0.04291   2.16147
    R5        2.75785   0.00108  -0.03580   0.00759  -0.02861   2.72923
    R6        2.00081   0.05220   0.17188   0.13783   0.30930   2.31011
    R7        2.05851   0.00074   0.00857   0.00164   0.01021   2.06872
    R8        2.58751  -0.01294   0.00641  -0.03045  -0.02387   2.56365
    R9        2.05679   0.00004   0.00817  -0.00074   0.00743   2.06422
   R10        2.83781  -0.01881  -0.01678  -0.07365  -0.08982   2.74798
   R11        2.05879   0.00048   0.00864   0.00067   0.00931   2.06811
   R12        2.52112   0.01209  -0.00926   0.02929   0.02062   2.54174
   R13        2.19256  -0.03095   0.03990  -0.08962  -0.04981   2.14275
   R14        2.06601  -0.00690   0.01033  -0.02230  -0.01196   2.05404
    A1        2.05887  -0.00224  -0.00788  -0.01509  -0.02296   2.03591
    A2        2.11918  -0.00138   0.00489  -0.00933  -0.00444   2.11474
    A3        2.10513   0.00362   0.00299   0.02442   0.02741   2.13253
    A4        2.20501  -0.01048   0.02517  -0.06407  -0.03829   2.16672
    A5        2.16882   0.00224   0.01806   0.01300   0.03167   2.20050
    A6        1.90935   0.00824  -0.04323   0.05107   0.00662   1.91597
    A7        2.53473  -0.00512   0.01066  -0.02492  -0.01567   2.51906
    A8        2.00980   0.00198  -0.01949   0.02237   0.00300   2.01280
    A9        2.20077   0.00255   0.02423   0.00108   0.02507   2.22584
   A10        2.07261  -0.00454  -0.00474  -0.02345  -0.02807   2.04455
   A11        2.02873   0.00094  -0.01657   0.00939  -0.00761   2.02112
   A12        2.26047  -0.00139   0.03991  -0.01630   0.02446   2.28493
   A13        1.99399   0.00045  -0.02334   0.00691  -0.01685   1.97713
   A14        2.03996  -0.00574  -0.01250  -0.03649  -0.04968   1.99027
   A15        2.16647   0.00216   0.01636   0.00990   0.02764   2.19411
   A16        2.07676   0.00358  -0.00386   0.02659   0.02204   2.09880
   A17        1.92225   0.00720  -0.04134   0.05623   0.01573   1.93798
   A18        2.16634   0.00047   0.01735  -0.00142   0.01551   2.18185
   A19        2.19460  -0.00767   0.02399  -0.05481  -0.03124   2.16336
   A20        2.71392  -0.01365  -0.00660  -0.07707  -0.08384   2.63008
    D1        3.14159   0.00000   0.00000   0.00000   0.00000   3.14159
    D2        0.00000   0.00000   0.00000   0.00000   0.00000   0.00000
    D3        0.00000   0.00000   0.00000   0.00000   0.00000   0.00000
    D4        3.14159   0.00000   0.00000   0.00000   0.00000   3.14159
    D5       -3.14159   0.00000   0.00000   0.00000   0.00000  -3.14159
    D6        0.00000   0.00000   0.00000   0.00000   0.00000   0.00000
    D7        0.00000   0.00000   0.00000   0.00000   0.00000   0.00000
    D8        3.14159   0.00000   0.00000   0.00000   0.00000   3.14159
    D9        3.14159   0.00000   0.00000   0.00000   0.00000   3.14159
   D10        0.00000   0.00000   0.00000   0.00000   0.00000   0.00000
   D11        0.00000   0.00000   0.00000   0.00000   0.00000   0.00000
   D12        3.14159   0.00000   0.00000   0.00000   0.00000   3.14159
   D13        0.00000   0.00000   0.00000   0.00000   0.00000   0.00000
   D14        0.00000   0.00000   0.00000   0.00000   0.00000   0.00000
   D15        3.14159   0.00000   0.00000   0.00000   0.00000  -3.14159
   D16        3.14159   0.00000   0.00000   0.00000   0.00000   3.14159
   D17        0.00000   0.00000   0.00000   0.00000   0.00000   0.00000
   D18        0.00000   0.00000   0.00000   0.00000   0.00000   0.00000
   D19       -3.14159   0.00000   0.00000   0.00000   0.00000   3.14159
   D20        0.00000   0.00000   0.00000   0.00000   0.00000   0.00000
   D21        3.14159   0.00000   0.00000   0.00000   0.00000   3.14159
   D22        3.14159   0.00000   0.00000   0.00000   0.00000   3.14159
   D23        0.00000   0.00000   0.00000   0.00000   0.00000   0.00000
   D24        0.00000   0.00000   0.00000   0.00000   0.00000   0.00000
   D25        3.14159   0.00000   0.00000   0.00000   0.00000   3.14159
         Item               Value     Threshold  Converged?
 Maximum Force            0.052203     0.000450     NO 
 RMS     Force            0.009968     0.000300     NO 
 Maximum Displacement     0.158150     0.001800     NO 
 RMS     Displacement     0.048737     0.001200     NO 
 Predicted change in Energy=-9.410817D-03
 GradGradGradGradGradGradGradGradGradGradGradGradGradGradGradGradGradGrad

                          Input orientation:                          
 ---------------------------------------------------------------------
 Center     Atomic      Atomic             Coordinates (Angstroms)
 Number     Number       Type             X           Y           Z
 ---------------------------------------------------------------------
      1          6           0       -4.064246   -1.063391    3.198236
      2          1           0       -4.304366   -0.088189    3.626118
      3          1           0       -4.392207   -1.937651    3.759840
      4          6           0       -3.400964   -1.167263    2.043071
      5          1           0       -3.123147   -2.160941    1.549406
      6          6           0       -2.928320   -0.069686    1.232031
      7          1           0       -3.146918    0.929311    1.622713
      8          6           0       -2.253576   -0.140852    0.057262
      9          1           0       -1.987008    0.816277   -0.396662
     10          6           0       -1.813492   -1.288147   -0.720331
     11          1           0       -1.282907   -1.025700   -1.640820
     12          6           0       -2.008226   -2.578588   -0.394841
     13          1           0       -2.571779   -2.670726    0.584772
     14          1           0       -1.674023   -3.427907   -0.985123
 ---------------------------------------------------------------------
                    Distance matrix (angstroms):
                    1          2          3          4          5
     1  C    0.000000
     2  H    1.091678   0.000000
     3  H    1.089627   1.856369   0.000000
     4  C    1.336091   2.118154   2.126818   0.000000
     5  H    2.192926   3.162960   2.558591   1.143802   0.000000
     6  C    2.478657   2.761431   3.467286   1.444248   2.124154
     7  H    2.700856   2.527572   3.786492   2.153337   3.091212
     8  C    3.741032   4.116461   4.638028   2.512659   2.657707
     9  H    4.557560   4.729795   5.535847   3.447607   3.733874
    10  C    4.524553   5.151308   5.209948   3.189212   2.762005
    11  H    5.581552   6.144004   6.298137   4.251736   3.853932
    12  C    4.408315   5.257610   4.832757   3.142447   2.279819
    13  H    3.411917   4.349844   3.732615   2.252684   1.222459
    14  H    5.366991   6.271839   5.667809   4.154852   3.182609
                    6          7          8          9         10
     6  C    0.000000
     7  H    1.094720   0.000000
     8  C    1.356623   2.096174   0.000000
     9  H    2.079336   2.331532   1.092337   0.000000
    10  C    2.557188   3.490702   1.454170   2.136228   0.000000
    11  H    3.445957   4.236420   2.146774   2.331645   1.094394
    12  C    3.128558   4.203867   2.491415   3.394931   1.345029
    13  H    2.703974   3.790564   2.603801   3.669381   2.046904
    14  H    4.215054   5.287303   3.496738   4.296200   2.160587
                   11         12         13         14
    11  H    0.000000
    12  C    2.118965   0.000000
    13  H    3.052959   1.133897   0.000000
    14  H    2.520616   1.086953   1.960576   0.000000
 Stoichiometry    C6H8
 Framework group  CS[SG(C6H8)]
 Deg. of freedom    25
 Full point group                 CS      NOp   2
 Largest Abelian subgroup         CS      NOp   2
 Largest concise Abelian subgroup C1      NOp   1
                         Standard orientation:                         
 ---------------------------------------------------------------------
 Center     Atomic      Atomic             Coordinates (Angstroms)
 Number     Number       Type             X           Y           Z
 ---------------------------------------------------------------------
      1          6           0        2.471642    0.881729    0.000000
      2          1           0        2.611928    1.964356    0.000000
      3          1           0        3.374641    0.271909    0.000000
      4          6           0        1.249009    0.342928    0.000000
      5          1           0        1.043291   -0.782223    0.000000
      6          6           0        0.000000    1.068068    0.000000
      7          1           0        0.091856    2.158927    0.000000
      8          6           0       -1.254885    0.552616    0.000000
      9          1           0       -2.068337    1.281653    0.000000
     10          6           0       -1.718372   -0.825713    0.000000
     11          1           0       -2.807822   -0.929620    0.000000
     12          6           0       -0.933481   -1.917981    0.000000
     13          1           0        0.163488   -1.630959    0.000000
     14          1           0       -1.292532   -2.943919    0.000000
 ---------------------------------------------------------------------
 Rotational constants (GHZ):      7.8710366      2.2006166      1.7197905
 Standard basis: 6-31G(d) (6D, 7F)
 There are    82 symmetry adapted basis functions of A'  symmetry.
 There are    24 symmetry adapted basis functions of A"  symmetry.
 Integral buffers will be    131072 words long.
 Raffenetti 2 integral format.
 Two-electron integral symmetry is turned on.
   106 basis functions,   200 primitive gaussians,   106 cartesian basis functions
    22 alpha electrons       22 beta electrons
       nuclear repulsion energy       201.5721796590 Hartrees.
 NAtoms=   14 NActive=   14 NUniq=   14 SFac= 1.00D+00 NAtFMM=   60 NAOKFM=F Big=F
 One-electron integrals computed using PRISM.
 NBasis=   106 RedAO= T  NBF=    82    24
 NBsUse=   106 1.00D-06 NBFU=    82    24
 Initial guess read from the read-write file.
 B after Tr=     0.000000    0.000000    0.000000
         Rot=    1.000000    0.000000    0.000000    0.000000 Ang=   0.00 deg.
 Initial guess orbital symmetries:
       Occupied  (A') (A') (A') (A') (A') (A') (A') (A') (A') (A')
                 (A') (A') (A') (A') (A') (A') (A') (A') (A") (A')
                 (A") (A")
       Virtual   (A") (A") (A') (A') (A") (A') (A') (A') (A') (A')
                 (A') (A') (A') (A') (A') (A') (A") (A') (A') (A")
                 (A') (A') (A") (A') (A') (A") (A') (A") (A') (A")
                 (A') (A') (A') (A') (A') (A') (A') (A') (A') (A')
                 (A') (A') (A') (A') (A') (A') (A") (A") (A') (A")
                 (A") (A") (A') (A") (A") (A') (A') (A') (A') (A')
                 (A') (A") (A') (A") (A') (A') (A') (A") (A') (A")
                 (A') (A") (A') (A') (A') (A') (A') (A') (A') (A')
                 (A') (A') (A') (A')
 Harris functional with IExCor=  402 diagonalized for initial guess.
 ExpMin= 1.61D-01 ExpMax= 3.05D+03 ExpMxC= 4.57D+02 IAcc=1 IRadAn=         1 AccDes= 0.00D+00
 HarFok:  IExCor=  402 AccDes= 0.00D+00 IRadAn=         1 IDoV= 1
 ScaDFX=  1.000000  1.000000  1.000000  1.000000
 FoFCou: FMM=F IPFlag=           0 FMFlag=      100000 FMFlg1=           0
         NFxFlg=           0 DoJE=T BraDBF=F KetDBF=T FulRan=T
         Omega=  0.000000  0.000000  1.000000  0.000000  0.000000 ICntrl=     500 IOpCl=  0
         NMat0=    1 NMatS0=    1 NMatT0=    0 NMatD0=    1 NMtDS0=    0 NMtDT0=    0
         I1Cent=           4 NGrid=           0.
 Petite list used in FoFCou.
 Requested convergence on RMS density matrix=1.00D-08 within 128 cycles.
 Requested convergence on MAX density matrix=1.00D-06.
 Requested convergence on             energy=1.00D-06.
 No special actions if energy rises.
 Keep R1 ints in memory in canonical form, NReq=17179291.
 Integral accuracy reduced to 1.0D-05 until final iterations.
 Initial convergence to 1.0D-05 achieved.  Increase integral accuracy.
 SCF Done:  E(RB3LYP) =  -233.362907724     A.U. after   12 cycles
             Convg  =    0.7553D-08             -V/T =  2.0101
 Calling FoFJK, ICntrl=      2127 FMM=F ISym2X=1 I1Cent= 0 IOpClX= 0 NMat=1 NMatS=1 NMatT=0.
 ***** Axes restored to original set *****
 -------------------------------------------------------------------
 Center     Atomic                   Forces (Hartrees/Bohr)
 Number     Number              X              Y              Z
 -------------------------------------------------------------------
      1        6          -0.003472740   -0.001246081    0.006029579
      2        1           0.000513955   -0.001897544   -0.000913883
      3        1           0.000873762    0.002109437   -0.001498512
      4        6           0.012432611   -0.025883612   -0.021899947
      5        1          -0.023990967    0.030803650    0.042061995
      6        6          -0.001798344    0.012367434    0.003256919
      7        1           0.000970034   -0.001496685   -0.001703302
      8        6           0.000176497    0.009898802   -0.000204765
      9        1          -0.001079945   -0.001133159    0.001867357
     10        6           0.005004022   -0.005937360   -0.008768225
     11        1          -0.000944043   -0.002372652    0.001618078
     12        6          -0.012732771    0.009852443    0.022256485
     13        1           0.025714251   -0.026253629   -0.045013418
     14        1          -0.001666321    0.001188958    0.002911639
 -------------------------------------------------------------------
 Cartesian Forces:  Max     0.045013418 RMS     0.014821953

 GradGradGradGradGradGradGradGradGradGradGradGradGradGradGradGradGradGrad
 Berny optimization.
 Using GEDIIS/GDIIS optimizer.
 Internal  Forces:  Max     0.032001157 RMS     0.006924469
 Search for a local minimum.
 Step number   4 out of a maximum of   69
 All quantities printed in internal units (Hartrees-Bohrs-Radians)
 Mixed Optimization -- RFO/linear search
 Update second derivatives using D2CorX and points    3    4
 DE= -1.78D-02 DEPred=-9.41D-03 R= 1.89D+00
 SS=  1.41D+00  RLast= 3.59D-01 DXNew= 8.4853D-01 1.0777D+00
 Trust test= 1.89D+00 RLast= 3.59D-01 DXMaxT set to 8.49D-01
 ITU=  1  0  1  0
 Use linear search instead of GDIIS.
     Eigenvalues ---    0.00350   0.00373   0.01015   0.01148   0.01464
     Eigenvalues ---    0.01503   0.01602   0.02077   0.02230   0.02681
     Eigenvalues ---    0.02681   0.07223   0.15999   0.16000   0.16000
     Eigenvalues ---    0.16000   0.16008   0.16198   0.16536   0.18725
     Eigenvalues ---    0.19498   0.21893   0.22149   0.28437   0.33529
     Eigenvalues ---    0.36743   0.36864   0.37230   0.37230   0.37230
     Eigenvalues ---    0.37231   0.37668   0.38428   0.52900   0.53667
     Eigenvalues ---    0.56075
 RFO step:  Lambda=-1.43563704D-02 EMin= 3.50222179D-03
 Quartic linear search produced a step of  1.21557.
 Iteration  1 RMS(Cart)=  0.03960511 RMS(Int)=  0.04270806
 Iteration  2 RMS(Cart)=  0.03505776 RMS(Int)=  0.01531082
 Iteration  3 RMS(Cart)=  0.02016421 RMS(Int)=  0.00124784
 Iteration  4 RMS(Cart)=  0.00010791 RMS(Int)=  0.00124554
 Iteration  5 RMS(Cart)=  0.00000007 RMS(Int)=  0.00124554
 ClnCor:  largest displacement from symmetrization is 5.69D-08 for atom     7.
 Variable       Old X    -DE/DX   Delta X   Delta X   Delta X     New X
                                 (Linear)    (Quad)   (Total)
    R1        2.06297  -0.00217   0.00128  -0.00266  -0.00137   2.06160
    R2        2.05910  -0.00273   0.00146  -0.00695  -0.00549   2.05360
    R3        2.52485   0.00408  -0.01443   0.01711   0.00268   2.52752
    R4        2.16147  -0.02337  -0.05216  -0.05528  -0.10819   2.05328
    R5        2.72923   0.00837  -0.03478   0.03787   0.00124   2.73047
    R6        2.31011   0.03200   0.37598   0.16080   0.53722   2.84733
    R7        2.06872  -0.00217   0.01241  -0.00852   0.00389   2.07261
    R8        2.56365   0.00103  -0.02901   0.02420  -0.00593   2.55771
    R9        2.06422  -0.00203   0.00903  -0.00681   0.00222   2.06644
   R10        2.74798   0.00816  -0.10918   0.09098  -0.01784   2.73014
   R11        2.06811  -0.00239   0.01132  -0.00928   0.00205   2.07015
   R12        2.54174   0.00122   0.02506  -0.01513   0.01158   2.55332
   R13        2.14275  -0.02278  -0.06054  -0.05049  -0.10956   2.03319
   R14        2.05404  -0.00302  -0.01454   0.00099  -0.01355   2.04049
    A1        2.03591   0.00015  -0.02791   0.00393  -0.02398   2.01193
    A2        2.11474  -0.00002  -0.00540   0.00826   0.00286   2.11760
    A3        2.13253  -0.00013   0.03331  -0.01219   0.02112   2.15366
    A4        2.16672  -0.00730  -0.04654  -0.03985  -0.08467   2.08205
    A5        2.20050  -0.00377   0.03850  -0.02852   0.01171   2.21220
    A6        1.91597   0.01107   0.00804   0.06837   0.07297   1.98894
    A7        2.51906  -0.00339  -0.01905  -0.01997  -0.04073   2.47833
    A8        2.01280   0.00320   0.00365   0.01173   0.01709   2.02989
    A9        2.22584  -0.00398   0.03047  -0.02699   0.00004   2.22587
   A10        2.04455   0.00077  -0.03412   0.01527  -0.01713   2.02742
   A11        2.02112   0.00133  -0.00925  -0.00578  -0.01456   2.00656
   A12        2.28493  -0.00544   0.02973  -0.01971   0.00909   2.29402
   A13        1.97713   0.00411  -0.02048   0.02549   0.00547   1.98260
   A14        1.99027   0.00208  -0.06039   0.03726  -0.02432   1.96595
   A15        2.19411  -0.00033   0.03360  -0.00047   0.03550   2.22961
   A16        2.09880  -0.00175   0.02680  -0.03679  -0.01118   2.08763
   A17        1.93798   0.01091   0.01912   0.07248   0.09537   2.03335
   A18        2.18185  -0.00353   0.01886  -0.02945  -0.01248   2.16937
   A19        2.16336  -0.00738  -0.03797  -0.04303  -0.08289   2.08047
   A20        2.63008  -0.00884  -0.10191  -0.07371  -0.17223   2.45785
    D1        3.14159   0.00000   0.00000   0.00000   0.00000   3.14159
    D2        0.00000   0.00000   0.00000   0.00000   0.00000   0.00000
    D3        0.00000   0.00000   0.00000   0.00000   0.00000   0.00000
    D4        3.14159   0.00000   0.00000   0.00000   0.00000   3.14159
    D5       -3.14159   0.00000   0.00000   0.00000   0.00000  -3.14159
    D6        0.00000   0.00000   0.00000   0.00000   0.00000   0.00000
    D7        0.00000   0.00000   0.00000   0.00000   0.00000   0.00000
    D8       -3.14159   0.00000   0.00000   0.00000   0.00000  -3.14159
    D9        3.14159   0.00000   0.00000   0.00000   0.00000  -3.14159
   D10        0.00000   0.00000   0.00000   0.00000   0.00000   0.00000
   D11        0.00000   0.00000   0.00000   0.00000   0.00000   0.00000
   D12        3.14159   0.00000   0.00000   0.00000   0.00000   3.14159
   D13        0.00000   0.00000   0.00000   0.00000   0.00000   0.00000
   D14        0.00000   0.00000   0.00000   0.00000   0.00000   0.00000
   D15        3.14159   0.00000   0.00000   0.00000   0.00000   3.14159
   D16        3.14159   0.00000   0.00000   0.00000   0.00000  -3.14159
   D17        0.00000   0.00000   0.00000   0.00000   0.00000   0.00000
   D18        0.00000   0.00000   0.00000   0.00000   0.00000   0.00000
   D19        3.14159   0.00000   0.00000   0.00000   0.00000   3.14159
   D20        0.00000   0.00000   0.00000   0.00000   0.00000   0.00000
   D21        3.14159   0.00000   0.00000   0.00000   0.00000   3.14159
   D22        3.14159   0.00000   0.00000   0.00000   0.00000   3.14159
   D23        0.00000   0.00000   0.00000   0.00000   0.00000   0.00000
   D24        0.00000   0.00000   0.00000   0.00000   0.00000   0.00000
   D25       -3.14159   0.00000   0.00000   0.00000   0.00000   3.14159
         Item               Value     Threshold  Converged?
 Maximum Force            0.032001     0.000450     NO 
 RMS     Force            0.006924     0.000300     NO 
 Maximum Displacement     0.285018     0.001800     NO 
 RMS     Displacement     0.061043     0.001200     NO 
 Predicted change in Energy=-1.197112D-02
 GradGradGradGradGradGradGradGradGradGradGradGradGradGradGradGradGradGrad

[...]
 RMS     Displacement     0.000293     0.001200     YES
 Predicted change in Energy=-5.746359D-08
 Optimization completed.
    -- Stationary point found.
                           ----------------------------
                           !   Optimized Parameters   !
                           ! (Angstroms and Degrees)  !
 --------------------------                            --------------------------
 ! Name  Definition              Value          Derivative Info.                !
 --------------------------------------------------------------------------------
 ! R1    R(1,2)                  1.088          -DE/DX =    0.0                 !
 ! R2    R(1,3)                  1.0858         -DE/DX =    0.0                 !
 ! R3    R(1,4)                  1.344          -DE/DX =    0.0                 !
 ! R4    R(4,5)                  1.085          -DE/DX =    0.0                 !
 ! R5    R(4,6)                  1.4515         -DE/DX =    0.0                 !
 ! R6    R(5,13)                 1.96           -DE/DX =    0.0                 !
 ! R7    R(6,7)                  1.0904         -DE/DX =    0.0                 !
 ! R8    R(6,8)                  1.3566         -DE/DX =    0.0                 !
 ! R9    R(8,9)                  1.0892         -DE/DX =    0.0                 !
 ! R10   R(8,10)                 1.4641         -DE/DX =    0.0                 !
 ! R11   R(10,11)                1.0904         -DE/DX =    0.0                 !
 ! R12   R(10,12)                1.3439         -DE/DX =    0.0                 !
 ! R13   R(12,13)                1.0837         -DE/DX =    0.0                 !
 ! R14   R(12,14)                1.0863         -DE/DX =    0.0                 !
 ! A1    A(2,1,3)              116.6608         -DE/DX =    0.0                 !
 ! A2    A(2,1,4)              121.5394         -DE/DX =    0.0                 !
 ! A3    A(3,1,4)              121.7998         -DE/DX =    0.0                 !
 ! A4    A(1,4,5)              118.428          -DE/DX =    0.0                 !
 ! A5    A(1,4,6)              122.9011         -DE/DX =    0.0                 !
 ! A6    A(5,4,6)              118.671          -DE/DX =    0.0                 !
 ! A7    A(4,5,13)             135.5696         -DE/DX =    0.0                 !
 ! A8    A(4,6,7)              114.1145         -DE/DX =    0.0                 !
 ! A9    A(4,6,8)              129.8901         -DE/DX =    0.0                 !
 ! A10   A(7,6,8)              115.9954         -DE/DX =    0.0                 !
 ! A11   A(6,8,9)              114.6836         -DE/DX =    0.0                 !
 ! A12   A(6,8,10)             132.6923         -DE/DX =    0.0                 !
 ! A13   A(9,8,10)             112.6241         -DE/DX =    0.0                 !
 ! A14   A(8,10,11)            112.6765         -DE/DX =    0.0                 !
 ! A15   A(8,10,12)            131.3286         -DE/DX =    0.0                 !
 ! A16   A(11,10,12)           115.9949         -DE/DX =    0.0                 !
 ! A17   A(10,12,13)           124.1864         -DE/DX =    0.0                 !
 ! A18   A(10,12,14)           120.0524         -DE/DX =    0.0                 !
 ! A19   A(13,12,14)           115.7612         -DE/DX =    0.0                 !
 ! A20   A(5,13,12)            127.662          -DE/DX =    0.0                 !
 ! D1    D(2,1,4,5)           -180.0            -DE/DX =    0.0                 !
 ! D2    D(2,1,4,6)              0.0            -DE/DX =    0.0                 !
 ! D3    D(3,1,4,5)              0.0            -DE/DX =    0.0                 !
 ! D4    D(3,1,4,6)            180.0            -DE/DX =    0.0                 !
 ! D5    D(1,4,5,13)           180.0            -DE/DX =    0.0                 !
 ! D6    D(6,4,5,13)             0.0            -DE/DX =    0.0                 !
 ! D7    D(1,4,6,7)              0.0            -DE/DX =    0.0                 !
 ! D8    D(1,4,6,8)            180.0            -DE/DX =    0.0                 !
 ! D9    D(5,4,6,7)            180.0            -DE/DX =    0.0                 !
 ! D10   D(5,4,6,8)              0.0            -DE/DX =    0.0                 !
 ! D11   D(4,5,13,12)            0.0            -DE/DX =    0.0                 !
 ! D12   D(4,6,8,9)            180.0            -DE/DX =    0.0                 !
 ! D13   D(4,6,8,10)             0.0            -DE/DX =    0.0                 !
 ! D14   D(7,6,8,9)              0.0            -DE/DX =    0.0                 !
 ! D15   D(7,6,8,10)           180.0            -DE/DX =    0.0                 !
 ! D16   D(6,8,10,11)          180.0            -DE/DX =    0.0                 !
 ! D17   D(6,8,10,12)            0.0            -DE/DX =    0.0                 !
 ! D18   D(9,8,10,11)            0.0            -DE/DX =    0.0                 !
 ! D19   D(9,8,10,12)          180.0            -DE/DX =    0.0                 !
 ! D20   D(8,10,12,13)           0.0            -DE/DX =    0.0                 !
 ! D21   D(8,10,12,14)         180.0            -DE/DX =    0.0                 !
 ! D22   D(11,10,12,13)        180.0            -DE/DX =    0.0                 !
 ! D23   D(11,10,12,14)          0.0            -DE/DX =    0.0                 !
 ! D24   D(10,12,13,5)           0.0            -DE/DX =    0.0                 !
 ! D25   D(14,12,13,5)         180.0            -DE/DX =    0.0                 !
 --------------------------------------------------------------------------------
 GradGradGradGradGradGradGradGradGradGradGradGradGradGradGradGradGradGrad

 1\1\GINC-NISER-THINKCENTRE-M93P\Freq\RB3LYP\6-31G(d)\C6H8\STUDENT\02-M
 ar-2021\0\\#N Geom=AllCheck Guess=TCheck SCRF=Check GenChk RB3LYP/6-31
 G(d) Freq\\Title Card Required\\0,1\C,-4.1049453027,-0.9360661695,3.27
 03672852\H,-4.2998668412,0.0756330097,3.6199837583\H,-4.4688588733,-1.
 7460462439,3.8951921177\C,-3.4463708785,-1.1684012658,2.1220661255\H,-
 3.2796548074,-2.1975037717,1.8213463832\C,-2.9496827399,-0.1043710442,
 1.2688440021\H,-3.1577661481,0.8991554586,1.6412772349\C,-2.274898896,
 -0.1745626407,0.0940151954\H,-2.0187155191,0.790285713,-0.341761375\C,
 -1.8136562423,-1.3005937927,-0.7201738066\H,-1.2927782425,-0.980888054
 9,-1.6231803988\C,-1.9237058921,-2.6281354756,-0.54241497\H,-2.4141964
 528,-3.0902460776,0.3062462249\H,-1.5060811009,-3.3117135746,-1.276136
 1352\\Version=EM64L-G09RevC.01\State=1-A'\HF=-233.3868229\RMSD=2.286e-
 09\RMSF=2.971e-05\ZeroPoint=0.1193716\Thermal=0.125328\Dipole=-0.02237
 58,0.006973,0.0390052\DipoleDeriv=-0.2529276,0.0093216,-0.0787826,-0.0
 607978,0.1872702,0.1108057,-0.0795075,-0.0111999,-0.1600363,0.1103716,
 0.002119,0.0450403,0.0289593,-0.0919267,-0.0527471,0.0453178,-0.006045
 8,0.0573306,0.0935875,-0.0230039,0.0709124,-0.0423452,-0.0353315,0.071
 9238,0.0707124,0.0382706,0.0118374,-0.0472615,-0.0057246,-0.0250099,0.
 0878846,-0.0024546,-0.1523051,-0.0240422,0.0105722,-0.0196593,0.088702
 8,0.0266229,0.0328154,0.0003153,-0.0829872,-0.002517,0.0325434,-0.0482
 913,0.0502806,-0.0304343,-0.0146598,-0.1069612,0.0705005,0.0601201,-0.
 121098,-0.1060808,0.0270784,0.093037,0.0697582,0.0385846,0.0518416,0.0
 111807,-0.1005413,-0.0215203,0.0515583,-0.0692023,0.0088982,-0.1542793
 ,0.0605583,0.0323212,-0.095173,0.2484357,0.1695731,0.0307113,-0.101394
 6,-0.1905483,0.0703364,-0.0344246,0.0572561,-0.0302422,-0.1107392,0.05
 04062,0.0572993,0.0576836,0.0043446,0.0543635,-0.0740866,-0.2216955,-0
 .0144634,0.0242982,0.0261676,-0.2210791,0.1299103,0.3134041,0.0417159,
 -0.0157553,0.1119581,-0.0316474,0.0055918,0.0540258,0.1117938,0.026374
 ,-0.0880907,-0.2118859,0.0180182,-0.141119,0.0670979,-0.1189816,-0.114
 9482,-0.1406116,-0.0295511,-0.0487429,0.0830794,-0.0340271,0.0934526,-
 0.0269236,0.0364674,0.045807,0.093526,0.0581669,-0.0251402,0.0848733,0
 .0464575,0.0779705,0.0356542,-0.0192214,-0.0635737,0.0778588,-0.082371
 2,-0.0069149\Polar=45.4534661,-5.8216077,71.7740826,-40.5294004,10.641
 9701,92.8248142\PG=CS [SG(C6H8)]\NImag=1\\0.28482068,-0.00882820,0.654
 52502,-0.31477558,0.02105251,0.65188192,-0.04890631,0.04347227,0.02578
 003,0.04017550,0.04533035,-0.30315737,-0.08165237,-0.05049282,0.318985
 87,0.02579924,-0.07841937,-0.08004882,-0.03139745,0.09092176,0.0780012
 2,-0.06989317,-0.07035831,0.06450377,0.00424187,0.00455672,-0.00304683
 ,0.06448853,-0.07263604,-0.22383074,0.12440549,-0.00921764,-0.01552575
 ,0.01585244,0.07769611,0.22870968,0.06448022,0.12044232,-0.14335182,-0
 .00318923,-0.00811453,0.00792898,-0.07355426,-0.13304933,0.14836027,-0
 .16274385,0.03601590,0.19768146,0.00196921,0.00098796,0.00523318,-0.00
 065281,0.00351569,0.00909446,0.29552978,0.04302083,-0.13197598,-0.0757
 0916,0.01579936,-0.00337809,-0.02757672,-0.01292035,0.00818565,0.02251
 857,-0.03464981,0.66117699,0.19775387,-0.06352079,-0.39408814,0.005386
 30,-0.00180534,-0.00441970,0.00892454,-0.00607964,-0.01103819,-0.28875
 224,0.06578317,0.63288326,0.00188645,0.01625924,0.00621833,0.00737729,
 0.00027043,0.00717962,-0.00511338,-0.00008479,-0.00355453,-0.05102799,
 0.04002116,0.01884330,0.04142147,0.00034147,-0.00288268,-0.00067939,0.
 00011105,0.00132469,-0.00029844,0.00005196,0.00130970,-0.00000290,0.04
 034521,-0.31229288,-0.07300989,-0.04601250,0.33287806,0.00605377,-0.02
 837582,-0.00546306,0.00717797,-0.00057575,-0.00099342,-0.00355312,0.00
 023505,-0.00097100,0.01884665,-0.07244606,-0.07397765,-0.02954421,0.08
 324613,0.07698175,-0.00870803,-0.01344296,0.02602892,-0.00537301,-0.00
 115821,-0.00404966,0.00816364,0.00058408,0.00711049,-0.08542913,-0.036
 35173,0.03587980,0.00477031,0.00479141,-0.00348375,0.29632953,-0.00691
 661,0.01148277,0.01208795,0.00119967,0.00087375,-0.00199882,0.00187222
 ,-0.00002013,-0.00338443,-0.03838770,-0.21059791,0.06528400,-0.0107196
 6,-0.01859643,0.01843131,-0.01093561,0.61848259,0.02609639,0.02344359,
 -0.03883330,-0.00402528,0.00210382,-0.00066794,0.00712381,-0.00114311,
 -0.00016030,0.03585875,0.06174149,-0.12634705,-0.00364410,-0.00855747,
 0.00899181,-0.28824906,0.02407002,0.63252455,-0.00088617,-0.00087962,-
 0.00129878,0.00017186,0.00036185,0.00018550,-0.00015626,0.00013790,-0.
 00016820,0.00470225,-0.01038226,-0.00218857,0.00183193,-0.00156859,0.0
 0254912,-0.05170896,0.04597240,0.02489560,0.04555745,0.00080383,0.0012
 6033,-0.00136879,-0.00064982,0.00059361,0.00113394,-0.00008618,0.00054
 767,0.00015824,0.00481178,-0.02385187,-0.00865518,-0.00183151,-0.00183
 482,0.00313363,0.04713800,-0.28728537,-0.08459916,-0.04928687,0.307277
 39,-0.00128138,0.00156037,0.00061831,0.00017504,-0.00062632,-0.0000347
 2,-0.00017052,-0.00023165,0.00004055,-0.00203149,0.01778198,0.00722468
 ,0.00254640,0.00267614,-0.00109671,0.02490765,-0.08257106,-0.08186621,
 -0.03532506,0.08867016,0.08792936,0.00512088,-0.00228054,-0.00525200,0
 .00012670,0.00010525,-0.00008644,-0.00004433,0.00000113,0.00009464,-0.
 00770553,-0.00674098,0.02157014,-0.00077945,-0.00002403,-0.00060147,-0
 .15480156,0.01909567,0.17821839,-0.00006058,-0.00060084,0.00823182,0.2
 9299036,-0.00277201,-0.00548916,0.00474460,-0.00015348,0.00028584,0.00
 026922,-0.00085132,0.00064262,0.00148781,-0.01081057,0.01445950,0.0189
 1063,0.00043493,0.00031093,-0.00074191,-0.00112689,-0.12062520,0.00125
 636,0.01580504,-0.00070322,-0.02755587,0.00763413,0.59891075,-0.005257
 08,0.00388945,0.01130336,-0.00008911,-0.00018097,0.00022958,0.00008583
 ,0.00000457,-0.00013924,0.02152807,0.01182967,-0.03260452,-0.00059673,
 0.00005665,-0.00008611,0.17800933,-0.03393027,-0.36257039,0.00840143,0
 .00098985,-0.00993398,-0.28669168,-0.00841669,0.62692447,-0.00016736,-
 0.00074300,0.00003266,0.00029769,0.00006392,0.00018084,-0.00122008,0.0
 0006155,-0.00039609,0.00810999,0.00135330,0.00709654,-0.00021268,-0.00
 007192,-0.00018019,-0.00127750,-0.01555942,0.00969765,-0.00544844,-0.0
 0014844,-0.00317778,-0.05690160,-0.05672708,0.03309339,0.05177674,-0.0
 0009902,-0.00009197,0.00017282,-0.00001927,-0.00000230,0.00002936,-0.0
 0000415,0.00000952,0.00002229,0.00043298,0.00169409,-0.00086177,0.0001
 0419,0.00016715,-0.00017630,0.00106042,0.00185394,-0.00187130,0.000355
 60,0.00197604,-0.00052311,-0.05708804,-0.27237716,0.09690374,0.0590918
 5,0.29114155,0.00003932,0.00129334,-0.00019922,0.00017998,-0.00011540,
 0.00008689,-0.00039677,-0.00009203,-0.00075866,0.00708703,-0.00246310,
 -0.00017619,-0.00017837,0.00013013,-0.00000411,0.00986946,0.02704671,-
 0.01250455,-0.00317257,0.00035391,-0.00175006,0.03308966,0.09627567,-0
 .09412472,-0.04541382,-0.10006998,0.10330941,-0.00020989,0.00073518,0.
 00076921,0.00005585,-0.00004489,0.00003173,0.00019143,-0.00004023,-0.0
 0001129,-0.00312765,0.00060450,-0.00513586,0.00032760,-0.00023481,-0.0
 0020295,-0.00341417,0.01198810,0.01305443,0.00694236,-0.00006844,0.005
 88745,-0.08642266,0.04329189,0.04392196,0.00454670,-0.00622891,-0.0019
 5528,0.24894772,0.00268363,-0.00100996,-0.00468222,0.00003267,0.000063
 29,-0.00005695,-0.00002219,-0.00006414,0.00003603,-0.00540501,-0.00438
 887,0.00942207,-0.00010279,0.00013317,0.00017803,0.01617756,0.00873793
 ,-0.02809966,-0.00109846,0.00223740,0.00182766,0.01763337,-0.18376094,
 -0.03194611,0.01084555,-0.02304224,-0.01914490,0.03309755,0.81253360,0
 .00078935,-0.00129199,-0.00115898,0.00003253,0.00007800,0.00001855,-0.
 00001110,0.00006743,0.00020520,-0.00519798,-0.00103430,0.00295070,-0.0
 0020158,0.00040774,0.00056732,0.01309774,-0.02081012,-0.01898752,0.005
 87681,0.00003546,0.00010132,0.04365670,-0.07659116,-0.13819004,-0.0017
 7877,0.01056414,0.00666417,-0.20595051,-0.05053667,0.48821173,-0.00008
 841,-0.00004703,0.00003306,0.00002768,0.00000558,0.00000336,-0.0000075
 0,-0.00001018,0.00002370,-0.00002476,0.00008654,-0.00027744,0.00003084
 ,0.00000770,-0.00000106,0.00176275,0.00201462,0.00086397,-0.00031874,0
 .00006165,0.00044981,-0.00249086,-0.00355265,0.01012858,-0.00046264,0.
 00020544,-0.00092644,-0.10683753,-0.03720676,0.11401871,0.10154849,0.0
 0009650,0.00022063,-0.00016491,-0.00003419,0.00004043,0.00005961,0.000
 02353,0.00000591,-0.00004095,-0.00014550,-0.00065152,0.00024834,0.0001
 0290,0.00011203,-0.00017821,0.00077920,-0.00293633,-0.00140938,0.00047
 722,-0.00021939,-0.00083199,0.01345866,0.00484493,-0.02340221,0.000353
 42,0.00092947,-0.00059502,-0.03746782,-0.07850624,0.06480602,0.0398023
 8,0.09159434,0.00003454,0.00008483,-0.00012836,0.00000295,-0.00000960,
 0.00002434,0.00002405,0.00001771,-0.00003548,-0.00027984,-0.00015540,0
 .00030057,-0.00000007,-0.00001256,0.00003018,0.00085120,-0.00355896,0.
 00072947,0.00045410,-0.00010891,-0.00085185,0.01030444,0.00619693,-0.0
 1451397,-0.00092491,-0.00033756,0.00060952,0.11401601,0.06435178,-0.23
 880641,-0.12901351,-0.06858884,0.25093548,-0.00014282,-0.00033804,0.00
 043218,-0.00019016,-0.00006214,-0.00018910,0.00007238,0.00000034,0.000
 10936,0.00090028,0.00043203,-0.00049390,-0.00094356,0.00055708,0.00103
 095,-0.00023744,0.00083394,0.00032843,-0.00026449,-0.00023311,0.000065
 86,0.00765469,0.00944592,-0.00353570,0.00096337,0.00233739,0.00184450,
 -0.06912067,-0.03297317,0.03461166,0.00273641,-0.01703342,0.00416057,0
 .23965650,-0.00115990,-0.00031089,0.00201386,0.00010819,-0.00019759,-0
 .00018720,0.00002829,0.00005227,-0.00005007,0.00328013,0.00373302,-0.0
 0567508,0.00043120,-0.00150275,-0.00076214,-0.00731778,-0.00045231,0.0
 1272858,-0.00011782,-0.00024967,0.00020476,0.01022794,-0.03583602,-0.0
 1822432,0.00100911,-0.00125154,-0.00178953,-0.04269035,-0.50842776,0.0
 6953065,-0.00111560,-0.01086332,0.00177475,0.02297731,0.82829755,0.000
 42368,0.00058385,-0.00062359,-0.00018733,0.00010917,0.00002861,0.00010
 964,-0.00000144,-0.00005557,-0.00046446,-0.00071948,0.00141456,0.00102
 965,-0.00098117,-0.00215606,0.00024415,-0.00145515,-0.00049351,0.00006
 705,0.00040535,-0.00033773,-0.00352762,-0.01686364,0.01153013,0.001830
 77,-0.00410070,-0.00121832,0.03451120,0.05262305,-0.10853706,0.0043251
 2,0.02947126,-0.00199212,-0.24089770,-0.03246171,0.51988959,-0.0000608
 0,0.00017089,-0.00011674,-0.00019999,0.00004473,-0.00005356,0.00007511
 ,0.00000045,0.00003987,-0.00078833,0.00023857,0.00117287,0.00051001,0.
 00137120,0.00200657,0.00024684,-0.00024932,-0.00027434,0.00064659,0.00
 002108,0.00036111,-0.00563281,0.00014616,-0.00336459,-0.00005820,-0.00
 005410,-0.00008455,0.00325982,-0.00041316,0.00239056,0.00987811,-0.000
 35621,0.00468019,-0.10021706,-0.05514071,0.11385972,0.09424830,0.00009
 741,0.00089617,-0.00015890,-0.00011129,0.00006992,0.00019676,-0.000004
 17,-0.00001800,0.00000605,0.00013469,-0.00172569,-0.00025101,0.0010068
 7,0.00061715,-0.00176265,-0.00004668,-0.00057427,0.00007435,0.00006926
 ,0.00019063,-0.00012736,0.00035843,0.00172882,-0.00052755,0.00006172,0
 .00019190,-0.00010431,-0.01614737,-0.00625554,0.02798333,-0.00038671,-
 0.00537989,0.00048730,-0.05304635,-0.10815025,0.09153712,0.05945557,0.
 10839421,-0.00011750,-0.00028675,0.00007258,-0.00005518,-0.00007472,-0
 .00013581,0.00003982,-0.00000199,0.00002871,0.00117179,-0.00043175,-0.
 00215902,0.00200280,-0.00239657,-0.00185451,-0.00027224,0.00042693,0.0
 0056876,0.00036160,-0.00004353,0.00022437,-0.00336239,-0.00015821,-0.0
 0171856,-0.00008336,0.00009722,0.00003956,0.00222790,0.00060629,0.0007
 6597,0.00467987,0.00043422,0.00443169,0.11388137,0.09518125,-0.2316177
 7,-0.12893477,-0.10253490,0.24307583,-0.00002119,0.00026423,-0.0000365
 0,0.00022583,0.00003126,0.00020955,-0.00014542,-0.00000838,-0.00007914
 ,0.00028854,-0.00051116,0.00022062,-0.00007883,0.00033476,-0.00009828,
 -0.00032327,-0.00020830,0.00005536,-0.00100880,0.00006887,-0.00063892,
 0.00894675,-0.00076408,0.00436632,0.00005402,-0.00009437,0.00001787,0.
 00486111,-0.00324878,-0.00133412,-0.00575382,-0.00005667,-0.00430972,-
 0.08086741,0.06948001,0.08867612,-0.00190758,0.00855863,0.00846028,0.0
 7573007,0.00003776,0.00036385,-0.00006149,-0.00004468,0.00002370,0.000
 07441,0.00001782,-0.00000424,-0.00002908,-0.00012576,-0.00038644,0.000
 21050,0.00012034,0.00025668,-0.00020531,-0.00015081,-0.00034302,0.0002
 6186,0.00015435,0.00006126,-0.00025370,-0.00178015,-0.00239169,0.00295
 419,0.00040945,-0.00119845,-0.00072549,0.01320559,-0.01824969,-0.02320
 852,0.00013502,0.00080897,-0.00014148,0.06710221,-0.16484074,-0.118146
 51,-0.00523514,0.01001484,0.00918250,-0.07384601,0.17588497,-0.0000388
 4,-0.00045555,0.00001913,0.00020876,-0.00005773,-0.00001776,-0.0000788
 7,0.00001651,-0.00005345,0.00022461,0.00088109,0.00003668,-0.00010049,
 -0.00057840,0.00003157,0.00005596,0.00036189,-0.00038383,-0.00063803,-
 0.00010496,-0.00026734,0.00435581,0.00118626,0.00389400,0.00002308,0.0
 0015115,0.00002626,-0.00116401,0.00542159,0.00619506,-0.00430774,0.000
 19206,-0.00073306,0.08865154,-0.12228380,-0.18583117,0.00831768,-0.014
 81824,-0.01172182,-0.09550945,0.13008813,0.18880573\\-0.00000602,0.000
 00554,0.00001054,-0.00000794,-0.00001037,0.00001370,-0.00000152,-0.000
 00135,0.00000263,0.00001715,-0.00006462,-0.00003051,-0.00000832,0.0000
 4366,0.00001494,-0.00003066,0.00009085,0.00005428,0.00001598,-0.000015
 27,-0.00002796,-0.00000196,-0.00007329,0.00000266,0.00000432,0.0000067
 2,-0.00000744,0.00003901,-0.00000238,-0.00006790,-0.00001308,0.0000039
 5,0.00002280,-0.00002320,0.00000706,0.00004044,0.00001488,0.00000427,-
 0.00002585,0.00000137,0.00000520,-0.00000234\\\@


 CHARLIE BROWN..'I CAN'T GET THAT STUPID KITE IN THE   
 AIR... I CAN'T... I C A N N O T...'                          
 LUCY..'OH COME NOW CHARLIE BROWN...THAT'S NO WAY TO TALK...  
 THE TROUBLE WITH YOU IS YOU DON'T BELIEVE IN YOURSELF... YOU 
 DON'T BELIEVE IN YOUR OWN ABILITIES...  YOU'VE GOT TO SAY TO 
 YOURSELF...'I BELIEVE I CAN FLY THIS KITE.'... GO AHEAD SAY  
 IT....'
 CHARLIE BROWN..'I BELIEVE THAT I CAN FLY THIS STUPID  
 KITE.....I BELIEVE THAT I CAN FLY THIS KITE........          
 I  A C T U A L L Y  B E L I E V E  T H A T  I  C A N ******' 
 LUCY..'I'LL BET YOU TEN-TO-ONE YOU'RE WRONG.......'    SCHULZ
 Job cpu time:  0 days  0 hours  0 minutes 55.8 seconds.
 File lengths (MBytes):  RWF=     23 Int=      0 D2E=      0 Chk=      2 Scr=      1
 Normal termination of Gaussian 09 at Tue Mar  2 15:15:58 2021.
