 Entering Gaussian System, Link 0=g09
 Input=hex04.com
 Output=hex04.log
 Initial command:
 /home/student/g09/l1.exe /home/student/singh/other/Gau-22943.inp -scrdir=/home/student/singh/other/
 Entering Link 1 = /home/student/g09/l1.exe PID=     22945.
  
 Copyright (c) 1988,1990,1992,1993,1995,1998,2003,2009,2011,
            Gaussian, Inc.  All Rights Reserved.
  
 This is part of the Gaussian(R) 09 program.  It is based on
 the Gaussian(R) 03 system (copyright 2003, Gaussian, Inc.),
 the Gaussian(R) 98 system (copyright 1998, Gaussian, Inc.),
 the Gaussian(R) 94 system (copyright 1995, Gaussian, Inc.),
 the Gaussian 92(TM) system (copyright 1992, Gaussian, Inc.),
 the Gaussian 90(TM) system (copyright 1990, Gaussian, Inc.),
 the Gaussian 88(TM) system (copyright 1988, Gaussian, Inc.),
 the Gaussian 86(TM) system (copyright 1986, Carnegie Mellon
 University), and the Gaussian 82(TM) system (copyright 1983,
 Carnegie Mellon University). Gaussian is a federally registered
 trademark of Gaussian, Inc.
  
 This software contains proprietary and confidential information,
 including trade secrets, belonging to Gaussian, Inc.
  
 This software is provided under written license and may be
 used, copied, transmitted, or stored only in accord with that
 written license.
  
 The following legend is applicable only to US Government
 contracts under FAR:
  
                    RESTRICTED RIGHTS LEGEND
  
 Use, reproduction and disclosure by the US Government is
 subject to restrictions as set forth in subparagraphs (a)
 and (c) of the Commercial Computer Software - Restricted
 Rights clause in FAR 52.227-19.
  
 Gaussian, Inc.
 340 Quinnipiac St., Bldg. 40, Wallingford CT 06492
  
  
 ---------------------------------------------------------------
 Warning -- This program may not be used in any manner that
 competes with the business of Gaussian, Inc. or will provide
 assistance to any competitor of Gaussian, Inc.  The licensee
 of this program is prohibited from giving any competitor of
 Gaussian, Inc. access to this program.  By using this program,
 the user acknowledges that Gaussian, Inc. is engaged in the
 business of creating and licensing software in the field of
 computational chemistry and represents and warrants to the
 licensee that it is not a competitor of Gaussian, Inc. and that
 it will not use this program in any manner prohibited above.
 ---------------------------------------------------------------
  

 Cite this work as:
 Gaussian 09, Revision C.01,
 M. J. Frisch, G. W. Trucks, H. B. Schlegel, G. E. Scuseria, 
 M. A. Robb, J. R. Cheeseman, G. Scalmani, V. Barone, B. Mennucci, 
 G. A. Petersson, H. Nakatsuji, M. Caricato, X. Li, H. P. Hratchian, 
 A. F. Izmaylov, J. Bloino, G. Zheng, J. L. Sonnenberg, M. Hada, 
 M. Ehara, K. Toyota, R. Fukuda, J. Hasegawa, M. Ishida, T. Nakajima, 
 Y. Honda, O. Kitao, H. Nakai, T. Vreven, J. A. Montgomery, Jr., 
 J. E. Peralta, F. Ogliaro, M. Bearpark, J. J. Heyd, E. Brothers, 
 K. N. Kudin, V. N. Staroverov, T. Keith, R. Kobayashi, J. Normand, 
 K. Raghavachari, A. Rendell, J. C. Burant, S. S. Iyengar, J. Tomasi, 
 M. Cossi, N. Rega, J. M. Millam, M. Klene, J. E. Knox, J. B. Cross, 
 V. Bakken, C. Adamo, J. Jaramillo, R. Gomperts, R. E. Stratmann, 
 O. Yazyev, A. J. Austin, R. Cammi, C. Pomelli, J. W. Ochterski, 
 R. L. Martin, K. Morokuma, V. G. Zakrzewski, G. A. Voth, 
 P. Salvador, J. J. Dannenberg, S. Dapprich, A. D. Daniels, 
 O. Farkas, J. B. Foresman, J. V. Ortiz, J. Cioslowski, 
 and D. J. Fox, Gaussian, Inc., Wallingford CT, 2010.
 
 ******************************************
 Gaussian 09:  EM64L-G09RevC.01 23-Sep-2011
                 2-Mar-2021 
 ******************************************
 %chk=hex04.chk
 -----------------------------------------
 # opt freq b3lyp/6-31g* geom=connectivity
 -----------------------------------------
 1/14=-1,18=20,19=15,26=3,38=1,57=2/1,3;
 2/9=110,12=2,17=6,18=5,40=1/2;
 3/5=1,6=6,7=1,11=2,16=1,25=1,30=1,71=1,74=-5/1,2,3;
 4//1;
 5/5=2,38=5/2;
 6/7=2,8=2,9=2,10=2,28=1/1;
 7//1,2,3,16;
 1/14=-1,18=20,19=15/3(2);
 2/9=110/2;
 99//99;
 2/9=110/2;
 3/5=1,6=6,7=1,11=2,16=1,25=1,30=1,71=1,74=-5/1,2,3;
 4/5=5,16=3/1;
 5/5=2,38=5/2;
 7//1,2,3,16;
 1/14=-1,18=20,19=15/3(-5);
 2/9=110/2;
 6/7=2,8=2,9=2,10=2,19=2,28=1/1;
 99/9=1/99;
 -------------------
 Title Card Required
 -------------------
 Charge =  0 Multiplicity = 1
 Symbolic Z-Matrix:
 C                    -1.94183   0.77652   1.88684 
 H                    -2.35792   0.32681   2.76407 
 H                    -1.45865   1.26737   1.06799 
 C                    -2.80751   0.27087   0.97499 
 H                    -3.64918   0.84801   0.65343 
 C                    -2.57909  -1.13923   0.39963 
 H                    -3.26259  -1.53847  -0.32032 
 C                    -1.51536  -1.8762    0.80204 
 H                    -1.35664  -2.85594   0.40227 
 C                    -0.53163  -1.30159   1.83823 
 H                     0.30824  -1.88346   2.15595 
 C                    -0.72602  -0.06149   2.34906 
 H                    -1.55827  -0.69032   2.11064 
 H                     0.10622   0.56733   2.58748 
 

 GradGradGradGradGradGradGradGradGradGradGradGradGradGradGradGradGradGrad
 Berny optimization.
 Initialization pass.
                           ----------------------------
                           !    Initial Parameters    !
                           ! (Angstroms and Degrees)  !
 --------------------------                            --------------------------
 ! Name  Definition              Value          Derivative Info.                !
 --------------------------------------------------------------------------------
 ! R1    R(1,2)                  1.07           estimate D2E/DX2                !
 ! R2    R(1,3)                  1.07           estimate D2E/DX2                !
 ! R3    R(1,4)                  1.3552         estimate D2E/DX2                !
 ! R4    R(1,12)                 1.5473         estimate D2E/DX2                !
 ! R5    R(4,5)                  1.07           estimate D2E/DX2                !
 ! R6    R(4,6)                  1.54           estimate D2E/DX2                !
 ! R7    R(6,7)                  1.07           estimate D2E/DX2                !
 ! R8    R(6,8)                  1.3552         estimate D2E/DX2                !
 ! R9    R(8,9)                  1.07           estimate D2E/DX2                !
 ! R10   R(8,10)                 1.54           estimate D2E/DX2                !
 ! R11   R(10,11)                1.07           estimate D2E/DX2                !
 ! R12   R(10,12)                1.3552         estimate D2E/DX2                !
 ! R13   R(10,13)                1.2255         estimate D2E/DX2                !
 ! R14   R(12,13)                1.07           estimate D2E/DX2                !
 ! R15   R(12,14)                1.07           estimate D2E/DX2                !
 ! A1    A(2,1,4)               98.4188         estimate D2E/DX2                !
 ! A2    A(2,1,12)              80.3873         estimate D2E/DX2                !
 ! A3    A(3,1,4)               86.83           estimate D2E/DX2                !
 ! A4    A(3,1,12)              97.0208         estimate D2E/DX2                !
 ! A5    A(4,1,12)             120.0562         estimate D2E/DX2                !
 ! A6    A(1,4,5)              120.2269         estimate D2E/DX2                !
 ! A7    A(1,4,6)              119.8865         estimate D2E/DX2                !
 ! A8    A(5,4,6)              119.8865         estimate D2E/DX2                !
 ! A9    A(4,6,7)              119.8865         estimate D2E/DX2                !
 ! A10   A(4,6,8)              120.2269         estimate D2E/DX2                !
 ! A11   A(7,6,8)              119.8865         estimate D2E/DX2                !
 ! A12   A(6,8,9)              120.2269         estimate D2E/DX2                !
 ! A13   A(6,8,10)             119.8865         estimate D2E/DX2                !
 ! A14   A(9,8,10)             119.8865         estimate D2E/DX2                !
 ! A15   A(8,10,11)            119.8865         estimate D2E/DX2                !
 ! A16   A(8,10,12)            120.2269         estimate D2E/DX2                !
 ! A17   A(8,10,13)             78.4947         estimate D2E/DX2                !
 ! A18   A(11,10,12)           119.8865         estimate D2E/DX2                !
 ! A19   A(11,10,13)           149.6324         estimate D2E/DX2                !
 ! A20   A(1,12,10)            119.7168         estimate D2E/DX2                !
 ! A21   A(1,12,13)             68.9343         estimate D2E/DX2                !
 ! A22   A(1,12,14)            111.0657         estimate D2E/DX2                !
 ! A23   A(10,12,14)           120.6766         estimate D2E/DX2                !
 ! A24   L(2,1,3,4,-1)         185.2488         estimate D2E/DX2                !
 ! A25   L(13,12,14,1,-1)      180.0            estimate D2E/DX2                !
 ! A26   L(2,1,3,4,-2)         180.0            estimate D2E/DX2                !
 ! A27   L(13,12,14,1,-2)      180.0            estimate D2E/DX2                !
 ! D1    D(2,1,4,5)             96.28           estimate D2E/DX2                !
 ! D2    D(2,1,4,6)            -83.72           estimate D2E/DX2                !
 ! D3    D(3,1,4,5)            -83.72           estimate D2E/DX2                !
 ! D4    D(3,1,4,6)             96.28           estimate D2E/DX2                !
 ! D5    D(12,1,4,5)          -180.0            estimate D2E/DX2                !
 ! D6    D(12,1,4,6)             0.0            estimate D2E/DX2                !
 ! D7    D(2,1,12,10)           94.2183         estimate D2E/DX2                !
 ! D8    D(2,1,12,13)           62.362          estimate D2E/DX2                !
 ! D9    D(2,1,12,14)         -117.638          estimate D2E/DX2                !
 ! D10   D(3,1,12,10)          -90.3949         estimate D2E/DX2                !
 ! D11   D(3,1,12,13)         -122.2512         estimate D2E/DX2                !
 ! D12   D(3,1,12,14)           57.7488         estimate D2E/DX2                !
 ! D13   D(4,1,12,10)            0.0            estimate D2E/DX2                !
 ! D14   D(4,1,12,13)          -31.8563         estimate D2E/DX2                !
 ! D15   D(4,1,12,14)          148.1437         estimate D2E/DX2                !
 ! D16   D(1,4,6,7)            180.0            estimate D2E/DX2                !
 ! D17   D(1,4,6,8)              0.0            estimate D2E/DX2                !
 ! D18   D(5,4,6,7)              0.0            estimate D2E/DX2                !
 ! D19   D(5,4,6,8)            180.0            estimate D2E/DX2                !
 ! D20   D(4,6,8,9)           -180.0            estimate D2E/DX2                !
 ! D21   D(4,6,8,10)             0.0            estimate D2E/DX2                !
 ! D22   D(7,6,8,9)              0.0            estimate D2E/DX2                !
 ! D23   D(7,6,8,10)          -180.0            estimate D2E/DX2                !
 ! D24   D(6,8,10,11)          180.0            estimate D2E/DX2                !
 ! D25   D(6,8,10,12)            0.0            estimate D2E/DX2                !
 ! D26   D(6,8,10,13)           26.0301         estimate D2E/DX2                !
 ! D27   D(9,8,10,11)            0.0            estimate D2E/DX2                !
 ! D28   D(9,8,10,12)          180.0            estimate D2E/DX2                !
 ! D29   D(9,8,10,13)         -153.9699         estimate D2E/DX2                !
 ! D30   D(8,10,12,1)            0.0            estimate D2E/DX2                !
 ! D31   D(8,10,12,14)        -145.0644         estimate D2E/DX2                !
 ! D32   D(11,10,12,1)         180.0            estimate D2E/DX2                !
 ! D33   D(11,10,12,14)         34.9356         estimate D2E/DX2                !
 --------------------------------------------------------------------------------
 Trust Radius=3.00D-01 FncErr=1.00D-07 GrdErr=1.00D-06
 Number of steps in this run=     85 maximum allowed number of steps=    100.
 GradGradGradGradGradGradGradGradGradGradGradGradGradGradGradGradGradGrad

                          Input orientation:                          
 ---------------------------------------------------------------------
 Center     Atomic      Atomic             Coordinates (Angstroms)
 Number     Number       Type             X           Y           Z
 ---------------------------------------------------------------------
      1          6           0       -1.941834    0.776525    1.886841
      2          1           0       -2.357918    0.326806    2.764067
      3          1           0       -1.458652    1.267368    1.067995
      4          6           0       -2.807515    0.270868    0.974989
      5          1           0       -3.649184    0.848008    0.653425
      6          6           0       -2.579085   -1.139232    0.399629
      7          1           0       -3.262585   -1.538474   -0.320325
      8          6           0       -1.515357   -1.876198    0.802035
      9          1           0       -1.356644   -2.855943    0.402272
     10          6           0       -0.531629   -1.301588    1.838231
     11          1           0        0.308239   -1.883461    2.155951
     12          6           0       -0.726024   -0.061494    2.349058
     13          1           0       -1.558270   -0.690320    2.110635
     14          1           0        0.106221    0.567332    2.587480
 ---------------------------------------------------------------------
                    Distance matrix (angstroms):
                    1          2          3          4          5
     1  C    0.000000
     2  H    1.070000   0.000000
     3  H    1.070000   2.137755   0.000000
     4  C    1.355200   1.845554   1.679611   0.000000
     5  H    2.107479   2.528602   2.268515   1.070000   0.000000
     6  C    2.507591   2.790833   2.737482   1.540000   2.271265
     7  H    3.460518   3.716337   3.613081   2.271265   2.606327
     8  C    2.897521   3.068013   3.155307   2.511867   3.463611
     9  H    3.967520   4.087849   4.177953   3.494278   4.363264
    10  C    2.511891   2.616137   2.837635   2.897837   3.967830
    11  H    3.494391   3.516174   3.772701   3.967836   5.037827
    12  C    1.547292   1.728029   1.985885   2.516174   3.499603
    13  H    1.532592   1.449467   2.220263   1.942727   2.976883
    14  H    2.174669   2.482140   2.290789   3.343333   4.233487
                    6          7          8          9         10
     6  C    0.000000
     7  H    1.070000   0.000000
     8  C    1.355200   2.103938   0.000000
     9  H    2.107479   2.427032   1.070000   0.000000
    10  C    2.507591   3.489068   1.540000   2.271265   0.000000
    11  H    3.460518   4.359099   2.271265   2.606327   1.070000
    12  C    2.897521   3.967520   2.511867   3.463611   1.355200
    13  H    2.042334   3.087656   1.766517   2.765697   1.225498
    14  H    3.861337   4.923272   3.433390   4.316702   2.112129
                   11         12         13         14
    11  H    0.000000
    12  C    2.103938   0.000000
    13  H    2.215738   1.070000   0.000000
    14  H    2.496680   1.070000   2.140000   0.000000
 Stoichiometry    C6H8
 Framework group  C1[X(C6H8)]
 Deg. of freedom    36
 Full point group                 C1      NOp   1
 Largest Abelian subgroup         C1      NOp   1
 Largest concise Abelian subgroup C1      NOp   1
                         Standard orientation:                         
 ---------------------------------------------------------------------
 Center     Atomic      Atomic             Coordinates (Angstroms)
 Number     Number       Type             X           Y           Z
 ---------------------------------------------------------------------
      1          6           0        0.142774   -1.430148    0.018566
      2          1           0       -0.043103   -1.404450    1.071984
      3          1           0        0.247530   -1.510158   -1.043284
      4          6           0        1.277574   -0.689593   -0.000798
      5          1           0        2.233960   -1.169410   -0.002059
      6          6           0        1.190338    0.847801   -0.021056
      7          1           0        2.086321    1.432507   -0.036345
      8          6           0       -0.017333    1.462694   -0.019587
      9          1           0       -0.077945    2.530883   -0.033662
     10          6           0       -1.306878    0.621154    0.002418
     11          1           0       -2.260397    1.106644    0.003578
     12          6           0       -1.238151   -0.732183    0.020317
     13          1           0       -0.508102   -0.141667    0.533364
     14          1           0       -1.968201   -1.322700   -0.492731
 ---------------------------------------------------------------------
 Rotational constants (GHZ):      5.2852005      5.1922297      2.6975563
 Standard basis: 6-31G(d) (6D, 7F)
 There are   106 symmetry adapted basis functions of A   symmetry.
 Integral buffers will be    131072 words long.
 Raffenetti 2 integral format.
 Two-electron integral symmetry is turned on.
   106 basis functions,   200 primitive gaussians,   106 cartesian basis functions
    22 alpha electrons       22 beta electrons
       nuclear repulsion energy       224.4973059543 Hartrees.
 NAtoms=   14 NActive=   14 NUniq=   14 SFac= 1.00D+00 NAtFMM=   60 NAOKFM=F Big=F
 One-electron integrals computed using PRISM.
 NBasis=   106 RedAO= T  NBF=   106
 NBsUse=   106 1.00D-06 NBFU=   106
 Harris functional with IExCor=  402 diagonalized for initial guess.
 ExpMin= 1.61D-01 ExpMax= 3.05D+03 ExpMxC= 4.57D+02 IAcc=1 IRadAn=         1 AccDes= 0.00D+00
 HarFok:  IExCor=  402 AccDes= 0.00D+00 IRadAn=         1 IDoV= 1
 ScaDFX=  1.000000  1.000000  1.000000  1.000000
 FoFCou: FMM=F IPFlag=           0 FMFlag=      100000 FMFlg1=           0
         NFxFlg=           0 DoJE=T BraDBF=F KetDBF=T FulRan=T
         Omega=  0.000000  0.000000  1.000000  0.000000  0.000000 ICntrl=     500 IOpCl=  0
         NMat0=    1 NMatS0=    1 NMatT0=    0 NMatD0=    1 NMtDS0=    0 NMtDT0=    0
         I1Cent=           4 NGrid=           0.
 Petite list used in FoFCou.
 Initial guess orbital symmetries:
       Occupied  (A) (A) (A) (A) (A) (A) (A) (A) (A) (A) (A) (A)
                 (A) (A) (A) (A) (A) (A) (A) (A) (A) (A)
       Virtual   (A) (A) (A) (A) (A) (A) (A) (A) (A) (A) (A) (A)
                 (A) (A) (A) (A) (A) (A) (A) (A) (A) (A) (A) (A)
                 (A) (A) (A) (A) (A) (A) (A) (A) (A) (A) (A) (A)
                 (A) (A) (A) (A) (A) (A) (A) (A) (A) (A) (A) (A)
                 (A) (A) (A) (A) (A) (A) (A) (A) (A) (A) (A) (A)
                 (A) (A) (A) (A) (A) (A) (A) (A) (A) (A) (A) (A)
                 (A) (A) (A) (A) (A) (A) (A) (A) (A) (A) (A) (A)
 The electronic state of the initial guess is 1-A.
 Requested convergence on RMS density matrix=1.00D-08 within 128 cycles.
 Requested convergence on MAX density matrix=1.00D-06.
 Requested convergence on             energy=1.00D-06.
 No special actions if energy rises.
 Keep R1 ints in memory in canonical form, NReq=17178486.
 Integral accuracy reduced to 1.0D-05 until final iterations.
 Initial convergence to 1.0D-05 achieved.  Increase integral accuracy.
 SCF Done:  E(RB3LYP) =  -232.981595234     A.U. after   19 cycles
             Convg  =    0.8446D-08             -V/T =  2.0053

 **********************************************************************

            Population analysis using the SCF density.

 **********************************************************************

 Orbital symmetries:
       Occupied  (A) (A) (A) (A) (A) (A) (A) (A) (A) (A) (A) (A)
                 (A) (A) (A) (A) (A) (A) (A) (A) (A) (A)
       Virtual   (A) (A) (A) (A) (A) (A) (A) (A) (A) (A) (A) (A)
                 (A) (A) (A) (A) (A) (A) (A) (A) (A) (A) (A) (A)
                 (A) (A) (A) (A) (A) (A) (A) (A) (A) (A) (A) (A)
                 (A) (A) (A) (A) (A) (A) (A) (A) (A) (A) (A) (A)
                 (A) (A) (A) (A) (A) (A) (A) (A) (A) (A) (A) (A)
                 (A) (A) (A) (A) (A) (A) (A) (A) (A) (A) (A) (A)
                 (A) (A) (A) (A) (A) (A) (A) (A) (A) (A) (A) (A)
 The electronic state is 1-A.
 Alpha  occ. eigenvalues --  -10.23677 -10.20147 -10.19112 -10.17914 -10.15786
 Alpha  occ. eigenvalues --  -10.15346  -0.95076  -0.78895  -0.74748  -0.61671
 Alpha  occ. eigenvalues --   -0.58904  -0.58366  -0.52645  -0.46831  -0.44749
 Alpha  occ. eigenvalues --   -0.42651  -0.37469  -0.35262  -0.33029  -0.27111
 Alpha  occ. eigenvalues --   -0.25695  -0.11088
 Alpha virt. eigenvalues --   -0.03804   0.00949   0.04793   0.10860   0.13079
 Alpha virt. eigenvalues --    0.15419   0.16073   0.18147   0.18273   0.20769
 Alpha virt. eigenvalues --    0.23378   0.25873   0.29370   0.31945   0.41265
 Alpha virt. eigenvalues --    0.47487   0.49773   0.52875   0.55150   0.57428
 Alpha virt. eigenvalues --    0.58108   0.59880   0.61740   0.63337   0.64469
 Alpha virt. eigenvalues --    0.65322   0.66919   0.72438   0.74117   0.80641
 Alpha virt. eigenvalues --    0.81481   0.84993   0.85597   0.88490   0.90605
 Alpha virt. eigenvalues --    0.91100   0.93143   0.95369   0.98260   1.01127
 Alpha virt. eigenvalues --    1.04847   1.06229   1.13213   1.17876   1.21141
 Alpha virt. eigenvalues --    1.25784   1.28486   1.45954   1.49345   1.51097
 Alpha virt. eigenvalues --    1.52342   1.57050   1.63058   1.66861   1.82445
 Alpha virt. eigenvalues --    1.86997   1.90706   1.94004   1.94238   2.01378
 Alpha virt. eigenvalues --    2.07373   2.11911   2.14190   2.20488   2.27805
 Alpha virt. eigenvalues --    2.31178   2.33204   2.41855   2.47897   2.52165
 Alpha virt. eigenvalues --    2.58241   2.61405   2.63509   2.65412   2.69533
 Alpha virt. eigenvalues --    2.76121   2.96838   3.19885   4.09068   4.13249
 Alpha virt. eigenvalues --    4.19820   4.32955   4.38575   4.60356
          Condensed to atoms (all electrons):
              1          2          3          4          5          6
     1  C    5.379800   0.387284   0.353238   0.244712  -0.049873  -0.085982
     2  H    0.387284   0.634021   0.014824  -0.092150  -0.004229   0.001842
     3  H    0.353238   0.014824   0.493028  -0.067474  -0.008038   0.011638
     4  C    0.244712  -0.092150  -0.067474   5.429461   0.379576   0.569700
     5  H   -0.049873  -0.004229  -0.008038   0.379576   0.575362  -0.028157
     6  C   -0.085982   0.001842   0.011638   0.569700  -0.028157   4.857970
     7  H    0.005822  -0.000640  -0.000695  -0.034971  -0.003769   0.363265
     8  C   -0.009040   0.011334   0.001742  -0.063172   0.004328   0.479145
     9  H    0.000410   0.000118   0.000059   0.005329  -0.000108  -0.042496
    10  C   -0.120586   0.032008   0.012313  -0.026875  -0.000173  -0.037319
    11  H    0.006012  -0.001669  -0.000455  -0.000193   0.000016   0.003535
    12  C    0.231738  -0.121632  -0.046552  -0.031273   0.007335  -0.035055
    13  H   -0.021761  -0.077383  -0.008504   0.039601  -0.001852   0.028064
    14  H   -0.028253  -0.003339  -0.012426   0.004076  -0.000120   0.000094
              7          8          9         10         11         12
     1  C    0.005822  -0.009040   0.000410  -0.120586   0.006012   0.231738
     2  H   -0.000640   0.011334   0.000118   0.032008  -0.001669  -0.121632
     3  H   -0.000695   0.001742   0.000059   0.012313  -0.000455  -0.046552
     4  C   -0.034971  -0.063172   0.005329  -0.026875  -0.000193  -0.031273
     5  H   -0.003769   0.004328  -0.000108  -0.000173   0.000016   0.007335
     6  C    0.363265   0.479145  -0.042496  -0.037319   0.003535  -0.035055
     7  H    0.596576  -0.049213  -0.007637   0.005710  -0.000064   0.000204
     8  C   -0.049213   5.142877   0.375549   0.503606  -0.025407  -0.089257
     9  H   -0.007637   0.375549   0.590543  -0.038663  -0.005636   0.006422
    10  C    0.005710   0.503606  -0.038663   5.201446   0.351797   0.303715
    11  H   -0.000064  -0.025407  -0.005636   0.351797   0.535969  -0.034433
    12  C    0.000204  -0.089257   0.006422   0.303715  -0.034433   5.675884
    13  H    0.000549  -0.027313  -0.003915  -0.013283   0.001429   0.149241
    14  H    0.000023   0.001697  -0.000118  -0.034983  -0.004547   0.381447
             13         14
     1  C   -0.021761  -0.028253
     2  H   -0.077383  -0.003339
     3  H   -0.008504  -0.012426
     4  C    0.039601   0.004076
     5  H   -0.001852  -0.000120
     6  C    0.028064   0.000094
     7  H    0.000549   0.000023
     8  C   -0.027313   0.001697
     9  H   -0.003915  -0.000118
    10  C   -0.013283  -0.034983
    11  H    0.001429  -0.004547
    12  C    0.149241   0.381447
    13  H    0.621384   0.001799
    14  H    0.001799   0.502363
 Mulliken atomic charges:
              1
     1  C   -0.293521
     2  H    0.219611
     3  H    0.257303
     4  C   -0.356346
     5  H    0.129704
     6  C   -0.086244
     7  H    0.124841
     8  C   -0.256876
     9  H    0.120143
    10  C   -0.138713
    11  H    0.173648
    12  C   -0.397783
    13  H    0.311944
    14  H    0.192289
 Sum of Mulliken atomic charges =   0.00000
 Mulliken charges with hydrogens summed into heavy atoms:
              1
     1  C    0.183393
     4  C   -0.226641
     6  C    0.038597
     8  C   -0.136733
    10  C    0.034935
    12  C    0.106449
 Sum of Mulliken charges with hydrogens summed into heavy atoms =   0.00000
 Electronic spatial extent (au):  <R**2>=            490.0287
 Charge=              0.0000 electrons
 Dipole moment (field-independent basis, Debye):
    X=             -1.7660    Y=             -0.3844    Z=             -0.2398  Tot=              1.8231
 Quadrupole moment (field-independent basis, Debye-Ang):
   XX=            -34.4240   YY=            -37.6130   ZZ=            -38.6691
   XY=              0.0895   XZ=              0.6300   YZ=              1.2803
 Traceless Quadrupole moment (field-independent basis, Debye-Ang):
   XX=              2.4780   YY=             -0.7110   ZZ=             -1.7670
   XY=              0.0895   XZ=              0.6300   YZ=              1.2803
 Octapole moment (field-independent basis, Debye-Ang**2):
  XXX=             -6.6796  YYY=              8.1981  ZZZ=             -0.8704  XYY=             -0.1973
  XXY=              2.7920  XXZ=             -2.9809  XZZ=             -2.0100  YZZ=             -4.3542
  YYZ=             -3.0049  XYZ=             -1.3637
 Hexadecapole moment (field-independent basis, Debye-Ang**3):
 XXXX=           -286.2414 YYYY=           -317.8322 ZZZZ=            -50.9192 XXXY=             -2.8945
 XXXZ=              6.8268 YYYX=              2.7701 YYYZ=              3.8173 ZZZX=              0.8023
 ZZZY=              2.1974 XXYY=            -92.3760 XXZZ=            -66.8030 YYZZ=            -63.2993
 XXYZ=              3.6754 YYXZ=              1.7966 ZZXY=              0.7559
 N-N= 2.244973059543D+02 E-N=-9.880781740863D+02  KE= 2.317608304379D+02
 Calling FoFJK, ICntrl=      2127 FMM=F ISym2X=0 I1Cent= 0 IOpClX= 0 NMat=1 NMatS=1 NMatT=0.
 ***** Axes restored to original set *****
 -------------------------------------------------------------------
 Center     Atomic                   Forces (Hartrees/Bohr)
 Number     Number              X              Y              Z
 -------------------------------------------------------------------
      1        6           0.045270655    0.007922950    0.059623006
      2        1          -0.040601480    0.098380855    0.051274154
      3        1           0.011676448    0.075691140    0.028470361
      4        6          -0.082547470   -0.193967302   -0.157977804
      5        1          -0.004780900    0.006460901   -0.005768727
      6        6          -0.055745849    0.133977456    0.029754012
      7        1          -0.007939652   -0.000682377   -0.008377830
      8        6           0.083547545   -0.019390722    0.050401887
      9        1           0.005808709   -0.010341478    0.005340669
     10        6          -0.002743345   -0.071932960   -0.101567809
     11        1           0.006232502   -0.010798590    0.006193174
     12        6           0.098329579    0.023621503   -0.017553702
     13        1          -0.059626689   -0.038640674    0.033143211
     14        1           0.003119947   -0.000300702    0.027045399
 -------------------------------------------------------------------
 Cartesian Forces:  Max     0.193967302 RMS     0.061923292

 GradGradGradGradGradGradGradGradGradGradGradGradGradGradGradGradGradGrad
 Berny optimization.
 Internal  Forces:  Max     0.186741718 RMS     0.036060040
 Search for a local minimum.
 Step number   1 out of a maximum of   85
 All quantities printed in internal units (Hartrees-Bohrs-Radians)
 Mixed Optimization -- RFO/linear search
 Second derivative matrix not updated -- first step.
 ITU=  0
     Eigenvalues ---    0.00648   0.00804   0.01313   0.01435   0.01557
     Eigenvalues ---    0.01859   0.01914   0.02079   0.02495   0.04451
     Eigenvalues ---    0.05073   0.05716   0.08746   0.10850   0.16000
     Eigenvalues ---    0.16000   0.16000   0.16000   0.17507   0.21001
     Eigenvalues ---    0.21998   0.22865   0.27458   0.27760   0.28412
     Eigenvalues ---    0.33060   0.37230   0.37230   0.37230   0.37230
     Eigenvalues ---    0.37230   0.37230   0.37230   0.48272   0.51578
     Eigenvalues ---    0.52845
 RFO step:  Lambda=-2.04826112D-01 EMin= 6.48470381D-03
 Linear search not attempted -- first point.
 Maximum step size (   0.300) exceeded in Quadratic search.
    -- Step size scaled by   0.500
 Iteration  1 RMS(Cart)=  0.05399336 RMS(Int)=  0.00187840
 Iteration  2 RMS(Cart)=  0.00172029 RMS(Int)=  0.00101529
 Iteration  3 RMS(Cart)=  0.00000528 RMS(Int)=  0.00101529
 Iteration  4 RMS(Cart)=  0.00000002 RMS(Int)=  0.00101529
 Variable       Old X    -DE/DX   Delta X   Delta X   Delta X     New X
                                 (Linear)    (Quad)   (Total)
    R1        2.02201   0.01647   0.00000   0.01426   0.01426   2.03626
    R2        2.02201   0.01821   0.00000   0.01577   0.01577   2.03777
    R3        2.56096   0.18674   0.00000   0.12732   0.12750   2.68846
    R4        2.92396   0.10481   0.00000   0.10952   0.10982   3.03377
    R5        2.02201   0.00898   0.00000   0.00777   0.00777   2.02978
    R6        2.91018  -0.09399   0.00000  -0.09413  -0.09424   2.81594
    R7        2.02201   0.01096   0.00000   0.00949   0.00949   2.03150
    R8        2.56096   0.07115   0.00000   0.04695   0.04666   2.60762
    R9        2.02201   0.00834   0.00000   0.00722   0.00722   2.02922
   R10        2.91018  -0.05775   0.00000  -0.06182  -0.06202   2.84816
   R11        2.02201   0.01260   0.00000   0.01091   0.01091   2.03292
   R12        2.56096   0.06370   0.00000   0.04459   0.04458   2.60553
   R13        2.31586   0.03403   0.00000   0.03159   0.03168   2.34754
   R14        2.02201   0.05097   0.00000   0.04586   0.04588   2.06789
   R15        2.02201   0.00828   0.00000   0.00717   0.00717   2.02917
    A1        1.71773  -0.00027   0.00000   0.01906   0.02304   1.74077
    A2        1.40302   0.04706   0.00000   0.08126   0.08448   1.48750
    A3        1.51547   0.02670   0.00000   0.04431   0.04417   1.55964
    A4        1.69333  -0.00705   0.00000  -0.00350  -0.00039   1.69294
    A5        2.09538  -0.07591   0.00000  -0.07942  -0.07839   2.01699
    A6        2.09836  -0.01084   0.00000  -0.01448  -0.01450   2.08385
    A7        2.09241   0.02170   0.00000   0.02901   0.02903   2.12145
    A8        2.09241  -0.01087   0.00000  -0.01453  -0.01455   2.07786
    A9        2.09241  -0.01573   0.00000  -0.01819  -0.01796   2.07446
   A10        2.09836   0.02476   0.00000   0.02719   0.02665   2.12500
   A11        2.09241  -0.00903   0.00000  -0.00900  -0.00878   2.08364
   A12        2.09836   0.00419   0.00000   0.01026   0.01056   2.10892
   A13        2.09241   0.00935   0.00000   0.00377   0.00316   2.09557
   A14        2.09241  -0.01355   0.00000  -0.01404  -0.01373   2.07868
   A15        2.09241  -0.01186   0.00000  -0.01338  -0.01334   2.07907
   A16        2.09836   0.01126   0.00000   0.00701   0.00676   2.10511
   A17        1.36999   0.01367   0.00000   0.01345   0.01345   1.38344
   A18        2.09241   0.00060   0.00000   0.00637   0.00657   2.09898
   A19        2.61158  -0.01415   0.00000  -0.02449  -0.02481   2.58677
   A20        2.08945   0.00884   0.00000   0.01244   0.01267   2.10212
   A21        1.20313   0.02720   0.00000   0.03451   0.03468   1.23781
   A22        1.93846  -0.00739   0.00000  -0.00542  -0.00565   1.93282
   A23        2.10620   0.00185   0.00000  -0.00165  -0.00153   2.10468
   A24        3.23320   0.02643   0.00000   0.06337   0.06721   3.30041
   A25        3.14159   0.01980   0.00000   0.02909   0.02903   3.17062
   A26        3.14159  -0.05453   0.00000  -0.11901  -0.11862   3.02297
   A27        3.14159  -0.01255   0.00000  -0.03361  -0.03343   3.10816
    D1        1.68040  -0.03641   0.00000  -0.07632  -0.07647   1.60394
    D2       -1.46119  -0.03905   0.00000  -0.08337  -0.08372  -1.54491
    D3       -1.46119   0.01812   0.00000   0.04270   0.04216  -1.41903
    D4        1.68040   0.01548   0.00000   0.03564   0.03490   1.71531
    D5        3.14159   0.01150   0.00000   0.02184   0.02166  -3.11993
    D6        0.00000   0.00886   0.00000   0.01479   0.01441   0.01441
    D7        1.64442   0.03218   0.00000   0.07499   0.07234   1.71676
    D8        1.08842   0.02534   0.00000   0.04935   0.04721   1.13563
    D9       -2.05317   0.03788   0.00000   0.08296   0.08064  -1.97253
   D10       -1.57769  -0.02117   0.00000  -0.04278  -0.04220  -1.61988
   D11       -2.13369  -0.02802   0.00000  -0.06842  -0.06733  -2.20101
   D12        1.00791  -0.01547   0.00000  -0.03481  -0.03389   0.97401
   D13        0.00000  -0.00388   0.00000  -0.00340  -0.00281  -0.00281
   D14       -0.55600  -0.01073   0.00000  -0.02904  -0.02794  -0.58394
   D15        2.58559   0.00182   0.00000   0.00458   0.00549   2.59109
   D16        3.14159  -0.00107   0.00000  -0.00147  -0.00157   3.14003
   D17        0.00000  -0.00778   0.00000  -0.01526  -0.01564  -0.01564
   D18        0.00000  -0.00370   0.00000  -0.00850  -0.00879  -0.00879
   D19        3.14159  -0.01041   0.00000  -0.02229  -0.02286   3.11873
   D20       -3.14159   0.00458   0.00000   0.00898   0.00920  -3.13240
   D21        0.00000   0.00136   0.00000   0.00383   0.00392   0.00392
   D22        0.00000  -0.00213   0.00000  -0.00481  -0.00495  -0.00495
   D23        3.14159  -0.00534   0.00000  -0.00996  -0.01022   3.13137
   D24        3.14159   0.00069   0.00000   0.00098   0.00105  -3.14054
   D25        0.00000   0.00364   0.00000   0.00764   0.00787   0.00787
   D26        0.45431   0.01613   0.00000   0.03172   0.03166   0.48597
   D27        0.00000  -0.00251   0.00000  -0.00415  -0.00413  -0.00413
   D28        3.14159   0.00044   0.00000   0.00251   0.00268  -3.13891
   D29       -2.68728   0.01293   0.00000   0.02659   0.02648  -2.66080
   D30        0.00000  -0.00254   0.00000  -0.00807  -0.00823  -0.00823
   D31       -2.53185  -0.00620   0.00000  -0.01625  -0.01670  -2.54855
   D32        3.14159   0.00040   0.00000  -0.00141  -0.00134   3.14026
   D33        0.60974  -0.00325   0.00000  -0.00959  -0.00980   0.59994
         Item               Value     Threshold  Converged?
 Maximum Force            0.186742     0.000450     NO 
 RMS     Force            0.036060     0.000300     NO 
 Maximum Displacement     0.260568     0.001800     NO 
 RMS     Displacement     0.054165     0.001200     NO 
 Predicted change in Energy=-9.021440D-02
 GradGradGradGradGradGradGradGradGradGradGradGradGradGradGradGradGradGrad

                          Input orientation:                          
 ---------------------------------------------------------------------
 Center     Atomic      Atomic             Coordinates (Angstroms)
 Number     Number       Type             X           Y           Z
 ---------------------------------------------------------------------
      1          6           0       -1.955997    0.822566    1.907063
      2          1           0       -2.417666    0.464692    2.812541
      3          1           0       -1.459591    1.358154    1.113621
      4          6           0       -2.825055    0.235711    0.945640
      5          1           0       -3.672324    0.792768    0.591321
      6          6           0       -2.583533   -1.133401    0.409267
      7          1           0       -3.268858   -1.535280   -0.314953
      8          6           0       -1.497930   -1.887475    0.805420
      9          1           0       -1.333549   -2.869360    0.402970
     10          6           0       -0.520136   -1.333891    1.809939
     11          1           0        0.321407   -1.934457    2.107285
     12          6           0       -0.702683   -0.078075    2.349070
     13          1           0       -1.555357   -0.730642    2.138002
     14          1           0        0.141035    0.538885    2.595098
 ---------------------------------------------------------------------
                    Distance matrix (angstroms):
                    1          2          3          4          5
     1  C    0.000000
     2  H    1.077544   0.000000
     3  H    1.078343   2.145346   0.000000
     4  C    1.422672   1.924505   1.775553   0.000000
     5  H    2.162832   2.572085   2.342786   1.074113   0.000000
     6  C    2.542243   2.890871   2.822623   1.490132   2.220076
     7  H    3.495768   3.808626   3.699490   2.218662   2.530598
     8  C    2.961041   3.226009   3.260455   2.507756   3.457967
     9  H    4.034855   4.254086   4.288681   3.487198   4.349314
    10  C    2.592574   2.800131   2.935054   2.919472   3.992994
    11  H    3.581597   3.708884   3.873062   3.994906   5.068115
    12  C    1.605404   1.857570   2.040097   2.563696   3.559047
    13  H    1.620587   1.620927   2.328433   1.991909   3.032252
    14  H    2.225177   2.568995   2.329803   3.407392   4.315239
                    6          7          8          9         10
     6  C    0.000000
     7  H    1.075022   0.000000
     8  C    1.379891   2.124962   0.000000
     9  H    2.139171   2.457764   1.073818   0.000000
    10  C    2.501936   3.480115   1.507181   2.235815   0.000000
    11  H    3.458848   4.349320   2.237643   2.552962   1.075773
    12  C    2.900714   3.975640   2.507827   3.460718   1.378789
    13  H    2.051313   3.098470   1.765597   2.762906   1.242263
    14  H    3.872682   4.939426   3.431672   4.312303   2.135629
                   11         12         13         14
    11  H    0.000000
    12  C    2.133864   0.000000
    13  H    2.229879   1.094279   0.000000
    14  H    2.527433   1.073792   2.167575   0.000000
 Stoichiometry    C6H8
 Framework group  C1[X(C6H8)]
 Deg. of freedom    36
 Full point group                 C1      NOp   1
 Largest Abelian subgroup         C1      NOp   1
 Largest concise Abelian subgroup C1      NOp   1
                         Standard orientation:                         
 ---------------------------------------------------------------------
 Center     Atomic      Atomic             Coordinates (Angstroms)
 Number     Number       Type             X           Y           Z
 ---------------------------------------------------------------------
      1          6           0        0.750928   -1.292808    0.019405
      2          1           0        0.652053   -1.422229    1.084569
      3          1           0        0.876177   -1.374663   -1.048507
      4          6           0        1.456903   -0.057973   -0.008472
      5          1           0        2.530761   -0.064998   -0.030777
      6          6           0        0.741481    1.249161   -0.016709
      7          1           0        1.318204    2.156172   -0.036556
      8          6           0       -0.636441    1.322859   -0.016071
      9          1           0       -1.136780    2.272879   -0.030554
     10          6           0       -1.460147    0.060759   -0.001752
     11          1           0       -2.533291    0.135922   -0.002434
     12          6           0       -0.850190   -1.175580    0.020146
     13          1           0       -0.429320   -0.329187    0.571448
     14          1           0       -1.293009   -2.012409   -0.486467
 ---------------------------------------------------------------------
 Rotational constants (GHZ):      5.1927834      5.0572742      2.6390709
 Standard basis: 6-31G(d) (6D, 7F)
 There are   106 symmetry adapted basis functions of A   symmetry.
 Integral buffers will be    131072 words long.
 Raffenetti 2 integral format.
 Two-electron integral symmetry is turned on.
   106 basis functions,   200 primitive gaussians,   106 cartesian basis functions
    22 alpha electrons       22 beta electrons
       nuclear repulsion energy       221.7299410430 Hartrees.
 NAtoms=   14 NActive=   14 NUniq=   14 SFac= 1.00D+00 NAtFMM=   60 NAOKFM=F Big=F
 One-electron integrals computed using PRISM.
 NBasis=   106 RedAO= T  NBF=   106
 NBsUse=   106 1.00D-06 NBFU=   106
 Initial guess read from the read-write file.
 B after Tr=     0.000000    0.000000    0.000000
         Rot=    1.000000    0.000000    0.000000    0.000000 Ang=   0.00 deg.
 Initial guess orbital symmetries:
       Occupied  (A) (A) (A) (A) (A) (A) (A) (A) (A) (A) (A) (A)
                 (A) (A) (A) (A) (A) (A) (A) (A) (A) (A)
       Virtual   (A) (A) (A) (A) (A) (A) (A) (A) (A) (A) (A) (A)
                 (A) (A) (A) (A) (A) (A) (A) (A) (A) (A) (A) (A)
                 (A) (A) (A) (A) (A) (A) (A) (A) (A) (A) (A) (A)
                 (A) (A) (A) (A) (A) (A) (A) (A) (A) (A) (A) (A)
                 (A) (A) (A) (A) (A) (A) (A) (A) (A) (A) (A) (A)
                 (A) (A) (A) (A) (A) (A) (A) (A) (A) (A) (A) (A)
                 (A) (A) (A) (A) (A) (A) (A) (A) (A) (A) (A) (A)
 Harris functional with IExCor=  402 diagonalized for initial guess.
 ExpMin= 1.61D-01 ExpMax= 3.05D+03 ExpMxC= 4.57D+02 IAcc=1 IRadAn=         1 AccDes= 0.00D+00
 HarFok:  IExCor=  402 AccDes= 0.00D+00 IRadAn=         1 IDoV= 1
 ScaDFX=  1.000000  1.000000  1.000000  1.000000
 FoFCou: FMM=F IPFlag=           0 FMFlag=      100000 FMFlg1=           0
         NFxFlg=           0 DoJE=T BraDBF=F KetDBF=T FulRan=T
         Omega=  0.000000  0.000000  1.000000  0.000000  0.000000 ICntrl=     500 IOpCl=  0
         NMat0=    1 NMatS0=    1 NMatT0=    0 NMatD0=    1 NMtDS0=    0 NMtDT0=    0
         I1Cent=           4 NGrid=           0.
 Petite list used in FoFCou.
 Requested convergence on RMS density matrix=1.00D-08 within 128 cycles.
 Requested convergence on MAX density matrix=1.00D-06.
 Requested convergence on             energy=1.00D-06.
 No special actions if energy rises.
 Keep R1 ints in memory in canonical form, NReq=17178486.
 Integral accuracy reduced to 1.0D-05 until final iterations.
 Initial convergence to 1.0D-05 achieved.  Increase integral accuracy.
 SCF Done:  E(RB3LYP) =  -233.070293464     A.U. after   17 cycles
             Convg  =    0.9025D-08             -V/T =  2.0073
 Calling FoFJK, ICntrl=      2127 FMM=F ISym2X=0 I1Cent= 0 IOpClX= 0 NMat=1 NMatS=1 NMatT=0.
 ***** Axes restored to original set *****
 -------------------------------------------------------------------
 Center     Atomic                   Forces (Hartrees/Bohr)
 Number     Number              X              Y              Z
 -------------------------------------------------------------------
      1        6           0.032132299   -0.031157187    0.007514392
      2        1          -0.021859990    0.085095299    0.029595072
      3        1           0.003726497    0.067378245    0.034174818
      4        6          -0.037303780   -0.150225444   -0.093857224
      5        1          -0.003519661    0.006104909   -0.003861227
      6        6          -0.039449452    0.107328642    0.025628072
      7        1          -0.005456932   -0.000999595   -0.005868690
      8        6           0.068622689   -0.010662281    0.040965028
      9        1           0.002422479   -0.007502460    0.004406351
     10        6          -0.006265932   -0.055479092   -0.101159646
     11        1           0.003263693   -0.006325405    0.006553054
     12        6           0.051291694    0.026000216   -0.022739388
     13        1          -0.047903288   -0.026186444    0.051833373
     14        1           0.000299685   -0.003369404    0.026816016
 -------------------------------------------------------------------
 Cartesian Forces:  Max     0.150225444 RMS     0.047120707

 GradGradGradGradGradGradGradGradGradGradGradGradGradGradGradGradGradGrad
 Berny optimization.
 Using GEDIIS/GDIIS optimizer.
 Internal  Forces:  Max     0.109289156 RMS     0.025575470
 Search for a local minimum.
 Step number   2 out of a maximum of   85
 All quantities printed in internal units (Hartrees-Bohrs-Radians)
 Mixed Optimization -- RFO/linear search
 Update second derivatives using D2CorX and points    1    2
 DE= -8.87D-02 DEPred=-9.02D-02 R= 9.83D-01
 SS=  1.41D+00  RLast= 3.64D-01 DXNew= 5.0454D-01 1.0928D+00
 Trust test= 9.83D-01 RLast= 3.64D-01 DXMaxT set to 5.05D-01
 ITU=  1  0
 Use linear search instead of GDIIS.
 Linear search step of   0.603 exceeds DXMaxT=   0.505 but not scaled.
 Quartic linear search produced a step of  2.00000.
 Iteration  1 RMS(Cart)=  0.10182878 RMS(Int)=  0.01018859
 Iteration  2 RMS(Cart)=  0.00950072 RMS(Int)=  0.00543963
 Iteration  3 RMS(Cart)=  0.00013740 RMS(Int)=  0.00543881
 Iteration  4 RMS(Cart)=  0.00000177 RMS(Int)=  0.00543881
 Iteration  5 RMS(Cart)=  0.00000002 RMS(Int)=  0.00543881
 Variable       Old X    -DE/DX   Delta X   Delta X   Delta X     New X
                                 (Linear)    (Quad)   (Total)
    R1        2.03626   0.00597   0.02851   0.00000   0.02851   2.06478
    R2        2.03777   0.01004   0.03153   0.00000   0.03153   2.06931
    R3        2.68846   0.10929   0.25501   0.00000   0.25503   2.94349
    R4        3.03377   0.05985   0.21963   0.00000   0.22016   3.25393
    R5        2.02978   0.00722   0.01555   0.00000   0.01555   2.04533
    R6        2.81594  -0.08030  -0.18847   0.00000  -0.18898   2.62696
    R7        2.03150   0.00781   0.01898   0.00000   0.01898   2.05048
    R8        2.60762   0.04466   0.09332   0.00000   0.09280   2.70042
    R9        2.02922   0.00558   0.01443   0.00000   0.01443   2.04365
   R10        2.84816  -0.05572  -0.12404   0.00000  -0.12410   2.72406
   R11        2.03292   0.00790   0.02182   0.00000   0.02182   2.05474
   R12        2.60553   0.04988   0.08915   0.00000   0.08957   2.69510
   R13        2.34754   0.03135   0.06336   0.00000   0.06320   2.41074
   R14        2.06789   0.03362   0.09176   0.00000   0.09194   2.15983
   R15        2.02917   0.00444   0.01433   0.00000   0.01433   2.04351
    A1        1.74077   0.00642   0.04607   0.00000   0.06700   1.80777
    A2        1.48750   0.03478   0.16895   0.00000   0.18412   1.67162
    A3        1.55964   0.02314   0.08834   0.00000   0.08790   1.64754
    A4        1.69294   0.00343  -0.00079   0.00000   0.01565   1.70859
    A5        2.01699  -0.05193  -0.15677   0.00000  -0.14648   1.87052
    A6        2.08385  -0.01196  -0.02900   0.00000  -0.02785   2.05600
    A7        2.12145   0.02097   0.05806   0.00000   0.05572   2.17717
    A8        2.07786  -0.00903  -0.02910   0.00000  -0.02806   2.04980
    A9        2.07446  -0.01018  -0.03591   0.00000  -0.03449   2.03996
   A10        2.12500   0.01659   0.05329   0.00000   0.05001   2.17501
   A11        2.08364  -0.00648  -0.01755   0.00000  -0.01622   2.06742
   A12        2.10892   0.00420   0.02112   0.00000   0.02240   2.13132
   A13        2.09557   0.00193   0.00632   0.00000   0.00368   2.09925
   A14        2.07868  -0.00614  -0.02747   0.00000  -0.02618   2.05250
   A15        2.07907  -0.00832  -0.02669   0.00000  -0.02618   2.05289
   A16        2.10511   0.00824   0.01352   0.00000   0.01160   2.11671
   A17        1.38344   0.01659   0.02690   0.00000   0.02673   1.41017
   A18        2.09898   0.00006   0.01313   0.00000   0.01441   2.11339
   A19        2.58677  -0.01838  -0.04962   0.00000  -0.05134   2.53542
   A20        2.10212   0.00412   0.02533   0.00000   0.02449   2.12661
   A21        1.23781   0.02136   0.06935   0.00000   0.06909   1.30689
   A22        1.93282  -0.00435  -0.01129   0.00000  -0.01151   1.92131
   A23        2.10468   0.00115  -0.00305   0.00000  -0.00181   2.10287
   A24        3.30041   0.02956   0.13441   0.00000   0.15490   3.45531
   A25        3.17062   0.01701   0.05806   0.00000   0.05758   3.22820
   A26        3.02297  -0.04569  -0.23725   0.00000  -0.23418   2.78879
   A27        3.10816  -0.01810  -0.06686   0.00000  -0.06605   3.04211
    D1        1.60394  -0.02837  -0.15293   0.00000  -0.15314   1.45080
    D2       -1.54491  -0.03189  -0.16744   0.00000  -0.16875  -1.71366
    D3       -1.41903   0.01731   0.08431   0.00000   0.08104  -1.33800
    D4        1.71531   0.01380   0.06981   0.00000   0.06543   1.78073
    D5       -3.11993   0.00504   0.04332   0.00000   0.04238  -3.07755
    D6        0.01441   0.00153   0.02882   0.00000   0.02677   0.04118
    D7        1.71676   0.02800   0.14468   0.00000   0.13067   1.84743
    D8        1.13563   0.01161   0.09442   0.00000   0.08264   1.21828
    D9       -1.97253   0.02971   0.16129   0.00000   0.14869  -1.82383
   D10       -1.61988  -0.01617  -0.08439   0.00000  -0.08042  -1.70030
   D11       -2.20101  -0.03255  -0.13465   0.00000  -0.12844  -2.32945
   D12        0.97401  -0.01445  -0.06779   0.00000  -0.06239   0.91162
   D13       -0.00281   0.00384  -0.00562   0.00000  -0.00251  -0.00532
   D14       -0.58394  -0.01255  -0.05588   0.00000  -0.05054  -0.63447
   D15        2.59109   0.00555   0.01099   0.00000   0.01551   2.60660
   D16        3.14003   0.00060  -0.00313   0.00000  -0.00355   3.13647
   D17       -0.01564  -0.00524  -0.03127   0.00000  -0.03310  -0.04874
   D18       -0.00879  -0.00292  -0.01759   0.00000  -0.01911  -0.02791
   D19        3.11873  -0.00875  -0.04573   0.00000  -0.04866   3.07007
   D20       -3.13240   0.00488   0.01839   0.00000   0.01957  -3.11282
   D21        0.00392   0.00303   0.00785   0.00000   0.00836   0.01228
   D22       -0.00495  -0.00101  -0.00989   0.00000  -0.01054  -0.01548
   D23        3.13137  -0.00286  -0.02044   0.00000  -0.02175   3.10962
   D24       -3.14054  -0.00015   0.00210   0.00000   0.00250  -3.13804
   D25        0.00787   0.00256   0.01573   0.00000   0.01676   0.02463
   D26        0.48597   0.01561   0.06333   0.00000   0.06308   0.54906
   D27       -0.00413  -0.00193  -0.00826   0.00000  -0.00808  -0.01221
   D28       -3.13891   0.00078   0.00537   0.00000   0.00618  -3.13272
   D29       -2.66080   0.01383   0.05297   0.00000   0.05250  -2.60830
   D30       -0.00823  -0.00563  -0.01646   0.00000  -0.01736  -0.02559
   D31       -2.54855  -0.00596  -0.03339   0.00000  -0.03549  -2.58404
   D32        3.14026  -0.00286  -0.00267   0.00000  -0.00245   3.13780
   D33        0.59994  -0.00319  -0.01961   0.00000  -0.02058   0.57936
         Item               Value     Threshold  Converged?
 Maximum Force            0.109289     0.000450     NO 
 RMS     Force            0.025575     0.000300     NO 
 Maximum Displacement     0.551364     0.001800     NO 
 RMS     Displacement     0.108302     0.001200     NO 
 Predicted change in Energy=-9.779636D-02
 GradGradGradGradGradGradGradGradGradGradGradGradGradGradGradGradGradGrad

                          Input orientation:                          
 ---------------------------------------------------------------------
 Center     Atomic      Atomic             Coordinates (Angstroms)
 Number     Number       Type             X           Y           Z
 ---------------------------------------------------------------------
      1          6           0       -1.986562    0.913048    1.951339
      2          1           0       -2.529957    0.756462    2.886245
      3          1           0       -1.476654    1.539108    1.211655
      4          6           0       -2.850411    0.160739    0.895876
      5          1           0       -3.703428    0.680225    0.478795
      6          6           0       -2.591130   -1.122884    0.429462
      7          1           0       -3.280797   -1.526855   -0.304387
      8          6           0       -1.462688   -1.912549    0.810366
      9          1           0       -1.286475   -2.898232    0.401803
     10          6           0       -0.500302   -1.398196    1.752282
     11          1           0        0.343484   -2.034137    2.008933
     12          6           0       -0.661060   -0.112165    2.347502
     13          1           0       -1.547231   -0.817101    2.192392
     14          1           0        0.202975    0.482734    2.610020
 ---------------------------------------------------------------------
                    Distance matrix (angstroms):
                    1          2          3          4          5
     1  C    0.000000
     2  H    1.092633   0.000000
     3  H    1.095029   2.127494   0.000000
     4  C    1.557628   2.102176   1.971503   0.000000
     5  H    2.273812   2.679302   2.496655   1.082340   0.000000
     6  C    2.612782   3.093778   2.989997   1.390128   2.119161
     7  H    3.566016   3.994675   3.866968   2.115145   2.379747
     8  C    3.091967   3.545695   3.474933   2.496320   3.442867
     9  H    4.173373   4.590804   4.514644   3.470924   4.318905
    10  C    2.755076   3.169845   3.142180   2.947325   4.025124
    11  H    3.757437   4.100461   4.088598   4.032040   5.107502
    12  C    1.721907   2.130149   2.163803   2.641014   3.657315
    13  H    1.801259   1.980727   2.553144   2.082163   3.134898
    14  H    2.326608   2.760461   2.427448   3.516410   4.454336
                    6          7          8          9         10
     6  C    0.000000
     7  H    1.085066   0.000000
     8  C    1.428999   2.167246   0.000000
     9  H    2.203350   2.521249   1.081455   0.000000
    10  C    2.489420   3.460867   1.441511   2.166097   0.000000
    11  H    3.455006   4.329457   2.171083   2.446690   1.087320
    12  C    2.902689   3.987090   2.499356   3.455295   1.426185
    13  H    2.071510   3.121364   1.765546   2.757773   1.275707
    14  H    3.890998   4.966778   3.427911   4.304140   2.183623
                   11         12         13         14
    11  H    0.000000
    12  C    2.194929   0.000000
    13  H    2.256022   1.142931   0.000000
    14  H    2.591465   1.081377   2.219730   0.000000
 Stoichiometry    C6H8
 Framework group  C1[X(C6H8)]
 Deg. of freedom    36
 Full point group                 C1      NOp   1
 Largest Abelian subgroup         C1      NOp   1
 Largest concise Abelian subgroup C1      NOp   1
                         Standard orientation:                         
 ---------------------------------------------------------------------
 Center     Atomic      Atomic             Coordinates (Angstroms)
 Number     Number       Type             X           Y           Z
 ---------------------------------------------------------------------
      1          6           0        1.349677   -0.881154    0.021800
      2          1           0        1.541392   -1.102241    1.074517
      3          1           0        1.547262   -0.988277   -1.049915
      4          6           0        1.297311    0.674995   -0.021385
      5          1           0        2.235854    1.210019   -0.087306
      6          6           0        0.129556    1.429058   -0.007476
      7          1           0        0.241819    2.507897   -0.036986
      8          6           0       -1.190413    0.881591   -0.008815
      9          1           0       -2.072342    1.507304   -0.023976
     10          6           0       -1.384842   -0.546747   -0.010150
     11          1           0       -2.407420   -0.916314   -0.014566
     12          6           0       -0.277351   -1.444839    0.019844
     13          1           0       -0.293383   -0.490020    0.647822
     14          1           0       -0.336809   -2.405799   -0.472494
 ---------------------------------------------------------------------
 Rotational constants (GHZ):      5.0826051      4.7488369      2.5274381
 Standard basis: 6-31G(d) (6D, 7F)
 There are   106 symmetry adapted basis functions of A   symmetry.
 Integral buffers will be    131072 words long.
 Raffenetti 2 integral format.
 Two-electron integral symmetry is turned on.
   106 basis functions,   200 primitive gaussians,   106 cartesian basis functions
    22 alpha electrons       22 beta electrons
       nuclear repulsion energy       217.0711207380 Hartrees.
 NAtoms=   14 NActive=   14 NUniq=   14 SFac= 1.00D+00 NAtFMM=   60 NAOKFM=F Big=F
 One-electron integrals computed using PRISM.
 NBasis=   106 RedAO= T  NBF=   106
 NBsUse=   106 1.00D-06 NBFU=   106
 Initial guess read from the read-write file.
 B after Tr=     0.000000    0.000000    0.000000
         Rot=    1.000000    0.000000    0.000000    0.000000 Ang=   0.00 deg.
 Initial guess orbital symmetries:
       Occupied  (A) (A) (A) (A) (A) (A) (A) (A) (A) (A) (A) (A)
                 (A) (A) (A) (A) (A) (A) (A) (A) (A) (A)
       Virtual   (A) (A) (A) (A) (A) (A) (A) (A) (A) (A) (A) (A)
                 (A) (A) (A) (A) (A) (A) (A) (A) (A) (A) (A) (A)
                 (A) (A) (A) (A) (A) (A) (A) (A) (A) (A) (A) (A)
                 (A) (A) (A) (A) (A) (A) (A) (A) (A) (A) (A) (A)
                 (A) (A) (A) (A) (A) (A) (A) (A) (A) (A) (A) (A)
                 (A) (A) (A) (A) (A) (A) (A) (A) (A) (A) (A) (A)
                 (A) (A) (A) (A) (A) (A) (A) (A) (A) (A) (A) (A)
 Harris functional with IExCor=  402 diagonalized for initial guess.
 ExpMin= 1.61D-01 ExpMax= 3.05D+03 ExpMxC= 4.57D+02 IAcc=1 IRadAn=         1 AccDes= 0.00D+00
 HarFok:  IExCor=  402 AccDes= 0.00D+00 IRadAn=         1 IDoV= 1
 ScaDFX=  1.000000  1.000000  1.000000  1.000000
 FoFCou: FMM=F IPFlag=           0 FMFlag=      100000 FMFlg1=           0
         NFxFlg=           0 DoJE=T BraDBF=F KetDBF=T FulRan=T
         Omega=  0.000000  0.000000  1.000000  0.000000  0.000000 ICntrl=     500 IOpCl=  0
         NMat0=    1 NMatS0=    1 NMatT0=    0 NMatD0=    1 NMtDS0=    0 NMtDT0=    0
         I1Cent=           4 NGrid=           0.
 Petite list used in FoFCou.
 Requested convergence on RMS density matrix=1.00D-08 within 128 cycles.
 Requested convergence on MAX density matrix=1.00D-06.
 Requested convergence on             energy=1.00D-06.
 No special actions if energy rises.
 Keep R1 ints in memory in canonical form, NReq=17178507.
 Integral accuracy reduced to 1.0D-05 until final iterations.
 Initial convergence to 1.0D-05 achieved.  Increase integral accuracy.
 SCF Done:  E(RB3LYP) =  -233.171871742     A.U. after   17 cycles
             Convg  =    0.4089D-08             -V/T =  2.0099
 Calling FoFJK, ICntrl=      2127 FMM=F ISym2X=0 I1Cent= 0 IOpClX= 0 NMat=1 NMatS=1 NMatT=0.
 ***** Axes restored to original set *****
 -------------------------------------------------------------------
 Center     Atomic                   Forces (Hartrees/Bohr)
 Number     Number              X              Y              Z
 -------------------------------------------------------------------
      1        6           0.026284777   -0.081380426   -0.052454180
      2        1           0.003814094    0.051602883    0.001464638
      3        1          -0.010595360    0.043065513    0.036737003
      4        6           0.002571464   -0.042926986   -0.006073292
      5        1          -0.001283278    0.005522397    0.000433544
      6        6          -0.007678233    0.035034524    0.006447290
      7        1          -0.000093584   -0.002026811   -0.001653756
      8        6           0.034724072   -0.003178627    0.017207173
      9        1          -0.004143919   -0.002273698    0.002764891
     10        6          -0.004558136   -0.019982533   -0.084712053
     11        1          -0.001526731    0.002166038    0.008562285
     12        6          -0.010475648    0.030809267   -0.027805616
     13        1          -0.023345248   -0.007230574    0.073032605
     14        1          -0.003694272   -0.009200968    0.026049468
 -------------------------------------------------------------------
 Cartesian Forces:  Max     0.084712053 RMS     0.029710115

 GradGradGradGradGradGradGradGradGradGradGradGradGradGradGradGradGradGrad
 Berny optimization.
 Using GEDIIS/GDIIS optimizer.
 Internal  Forces:  Max     0.035790738 RMS     0.012695492
 Search for a local minimum.
 Step number   3 out of a maximum of   85
 All quantities printed in internal units (Hartrees-Bohrs-Radians)
 Mixed Optimization -- RFO/linear search
 Update second derivatives using D2CorX and points    2    3
 ITU=  0  1  0
 Use linear search instead of GDIIS.
     Eigenvalues ---    0.00692   0.00832   0.01363   0.01470   0.01544
     Eigenvalues ---    0.01865   0.01948   0.02612   0.02831   0.04800
     Eigenvalues ---    0.05102   0.06160   0.09061   0.09874   0.15944
     Eigenvalues ---    0.15987   0.15997   0.16048   0.17698   0.20793
     Eigenvalues ---    0.21974   0.22471   0.26763   0.28007   0.29405
     Eigenvalues ---    0.32771   0.37130   0.37230   0.37230   0.37230
     Eigenvalues ---    0.37230   0.37230   0.37546   0.42205   0.49436
     Eigenvalues ---    0.52036
 RFO step:  Lambda=-9.24625730D-02 EMin= 6.91537452D-03
 Quartic linear search produced a step of  0.71233.
 Maximum step size (   0.505) exceeded in Quadratic search.
    -- Step size scaled by   0.954
 Iteration  1 RMS(Cart)=  0.09475153 RMS(Int)=  0.02957035
 Iteration  2 RMS(Cart)=  0.02281802 RMS(Int)=  0.00635398
 Iteration  3 RMS(Cart)=  0.00081988 RMS(Int)=  0.00629749
 Iteration  4 RMS(Cart)=  0.00000778 RMS(Int)=  0.00629749
 Iteration  5 RMS(Cart)=  0.00000014 RMS(Int)=  0.00629749
 Variable       Old X    -DE/DX   Delta X   Delta X   Delta X     New X
                                 (Linear)    (Quad)   (Total)
    R1        2.06478  -0.00804   0.02031  -0.03305  -0.01274   2.05204
    R2        2.06931  -0.00512   0.02246  -0.02859  -0.00613   2.06318
    R3        2.94349   0.00733   0.18167  -0.09933   0.08033   3.02382
    R4        3.25393  -0.00729   0.15683  -0.11684   0.04239   3.29632
    R5        2.04533   0.00349   0.01107   0.00185   0.01292   2.05825
    R6        2.62696  -0.02742  -0.13462   0.00264  -0.13561   2.49135
    R7        2.05048   0.00193   0.01352  -0.00380   0.00972   2.06020
    R8        2.70042   0.00585   0.06611  -0.03186   0.03209   2.73251
    R9        2.04365   0.00035   0.01028  -0.00591   0.00437   2.04802
   R10        2.72406  -0.03148  -0.08840  -0.03153  -0.11854   2.60552
   R11        2.05474  -0.00043   0.01554  -0.01131   0.00423   2.05897
   R12        2.69510   0.02442   0.06380  -0.00398   0.04296   2.73806
   R13        2.41074   0.02479   0.04502   0.09378   0.15971   2.57045
   R14        2.15983   0.00628   0.06549  -0.02205   0.04429   2.20412
   R15        2.04351  -0.00169   0.01021  -0.01094  -0.00073   2.04278
    A1        1.80777   0.00912   0.04773   0.06605   0.11974   1.92751
    A2        1.67162   0.00926   0.13115   0.00451   0.13958   1.81120
    A3        1.64754   0.01403   0.06261   0.10191   0.16490   1.81243
    A4        1.70859   0.01364   0.01115   0.10379   0.11896   1.82755
    A5        1.87052  -0.00733  -0.10434   0.05903  -0.03622   1.83429
    A6        2.05600  -0.00869  -0.01984  -0.01713  -0.03481   2.02119
    A7        2.17717   0.00845   0.03969  -0.01033   0.02452   2.20168
    A8        2.04980   0.00017  -0.01999   0.02694   0.00904   2.05884
    A9        2.03996   0.00050  -0.02457   0.02396   0.00151   2.04147
   A10        2.17501   0.00232   0.03562  -0.02206   0.00867   2.18369
   A11        2.06742  -0.00294  -0.01156  -0.00270  -0.01240   2.05501
   A12        2.13132  -0.00006   0.01596  -0.01891  -0.00320   2.12812
   A13        2.09925  -0.00370   0.00262  -0.00378  -0.00060   2.09865
   A14        2.05250   0.00376  -0.01865   0.02270   0.00369   2.05619
   A15        2.05289  -0.00249  -0.01865  -0.01201  -0.03082   2.02206
   A16        2.11671   0.00670   0.00826   0.02224   0.03173   2.14845
   A17        1.41017   0.02276   0.01904   0.13197   0.16131   1.57148
   A18        2.11339  -0.00424   0.01026  -0.01003  -0.00095   2.11244
   A19        2.53542  -0.02479  -0.03657  -0.16592  -0.20058   2.33484
   A20        2.12661  -0.00643   0.01744  -0.04477  -0.03302   2.09358
   A21        1.30689   0.01042   0.04921   0.07258   0.14391   1.45080
   A22        1.92131   0.00293  -0.00820   0.02342   0.00957   1.93088
   A23        2.10287   0.00098  -0.00129   0.00690   0.01890   2.12177
   A24        3.45531   0.02315   0.11034   0.16796   0.28463   3.73994
   A25        3.22820   0.01335   0.04102   0.09600   0.15348   3.38168
   A26        2.78879  -0.02916  -0.16681  -0.19702  -0.36356   2.42523
   A27        3.04211  -0.02541  -0.04705  -0.22913  -0.26820   2.77391
    D1        1.45080  -0.01447  -0.10909  -0.08417  -0.19439   1.25640
    D2       -1.71366  -0.01818  -0.12021  -0.11129  -0.23136  -1.94502
    D3       -1.33800   0.01469   0.05772   0.11285   0.16917  -1.16883
    D4        1.78073   0.01098   0.04660   0.08572   0.13221   1.91294
    D5       -3.07755  -0.00332   0.03019  -0.03763  -0.00620  -3.08375
    D6        0.04118  -0.00703   0.01907  -0.06475  -0.04317  -0.00198
    D7        1.84743   0.02317   0.09308   0.18251   0.26373   2.11116
    D8        1.21828  -0.00619   0.05887  -0.06835  -0.00523   1.21305
    D9       -1.82383   0.01922   0.10592   0.16078   0.26297  -1.56086
   D10       -1.70030  -0.00643  -0.05728  -0.05375  -0.11729  -1.81759
   D11       -2.32945  -0.03579  -0.09149  -0.30461  -0.38624  -2.71570
   D12        0.91162  -0.01038  -0.04444  -0.07548  -0.11805   0.79357
   D13       -0.00532   0.01164  -0.00179   0.09910   0.09173   0.08641
   D14       -0.63447  -0.01772  -0.03600  -0.15176  -0.17722  -0.81170
   D15        2.60660   0.00769   0.01105   0.07737   0.09098   2.69758
   D16        3.13647   0.00310  -0.00253   0.02871   0.02448  -3.12223
   D17       -0.04874  -0.00034  -0.02358   0.00675  -0.01742  -0.06615
   D18       -0.02791  -0.00070  -0.01361   0.00115  -0.01371  -0.04162
   D19        3.07007  -0.00414  -0.03466  -0.02081  -0.05561   3.01446
   D20       -3.11282   0.00418   0.01394   0.03181   0.04301  -3.06981
   D21        0.01228   0.00440   0.00595   0.03345   0.03654   0.04882
   D22       -0.01548   0.00078  -0.00751   0.01013   0.00115  -0.01433
   D23        3.10962   0.00099  -0.01550   0.01177  -0.00532   3.10430
   D24       -3.13804  -0.00121   0.00178   0.01733   0.02080  -3.11724
   D25        0.02463   0.00081   0.01194   0.00633   0.02272   0.04734
   D26        0.54906   0.01441   0.04494   0.13438   0.16859   0.71765
   D27       -0.01221  -0.00103  -0.00575   0.01852   0.01453   0.00232
   D28       -3.13272   0.00098   0.00441   0.00752   0.01645  -3.11628
   D29       -2.60830   0.01459   0.03740   0.13557   0.16232  -2.44598
   D30       -0.02559  -0.00916  -0.01237  -0.07673  -0.08857  -0.11416
   D31       -2.58404  -0.00503  -0.02528  -0.05522  -0.08252  -2.66656
   D32        3.13780  -0.00710  -0.00175  -0.08811  -0.08623   3.05158
   D33        0.57936  -0.00297  -0.01466  -0.06660  -0.08018   0.49918
         Item               Value     Threshold  Converged?
 Maximum Force            0.035791     0.000450     NO 
 RMS     Force            0.012695     0.000300     NO 
 Maximum Displacement     0.546192     0.001800     NO 
 RMS     Displacement     0.110606     0.001200     NO 
 Predicted change in Energy=-8.201332D-02
 GradGradGradGradGradGradGradGradGradGradGradGradGradGradGradGradGradGrad

                          Input orientation:                          
 ---------------------------------------------------------------------
 Center     Atomic      Atomic             Coordinates (Angstroms)
 Number     Number       Type             X           Y           Z
 ---------------------------------------------------------------------
      1          6           0       -1.979706    0.915553    1.911795
      2          1           0       -2.526710    1.045494    2.840807
      3          1           0       -1.516048    1.696951    1.306453
      4          6           0       -2.853844    0.084593    0.860212
      5          1           0       -3.701465    0.612945    0.425827
      6          6           0       -2.603587   -1.137940    0.434914
      7          1           0       -3.291373   -1.556093   -0.300380
      8          6           0       -1.440829   -1.920560    0.790384
      9          1           0       -1.253300   -2.896953    0.359058
     10          6           0       -0.514319   -1.422310    1.681655
     11          1           0        0.345467   -2.061431    1.880235
     12          6           0       -0.665391   -0.144891    2.348545
     13          1           0       -1.520309   -0.931236    2.454338
     14          1           0        0.191178    0.426074    2.678439
 ---------------------------------------------------------------------
                    Distance matrix (angstroms):
                    1          2          3          4          5
     1  C    0.000000
     2  H    1.085892   0.000000
     3  H    1.091787   1.949378   0.000000
     4  C    1.600137   2.225557   2.142085   0.000000
     5  H    2.294368   2.720161   2.593573   1.089178   0.000000
     6  C    2.605233   3.249864   3.158944   1.318368   2.066645
     7  H    3.566963   4.149702   4.039306   2.056759   2.323851
     8  C    3.097013   3.765747   3.654911   2.454002   3.414971
     9  H    4.180174   4.829445   4.697930   3.420893   4.279878
    10  C    2.768741   3.388718   3.297579   2.901534   3.984629
    11  H    3.777547   4.338788   4.233190   3.985154   5.064114
    12  C    1.744339   2.263592   2.280780   2.656525   3.672725
    13  H    1.978897   2.251591   2.867931   2.313323   3.355115
    14  H    2.353736   2.792304   2.532211   3.562965   4.501317
                    6          7          8          9         10
     6  C    0.000000
     7  H    1.090211   0.000000
     8  C    1.445980   2.178788   0.000000
     9  H    2.218818   2.527153   1.083767   0.000000
    10  C    2.449544   3.414438   1.378781   2.114220   0.000000
    11  H    3.411555   4.270486   2.097254   2.359689   1.089560
    12  C    2.899092   3.987992   2.486397   3.446381   1.448919
    13  H    2.300933   3.334005   1.937478   2.885400   1.360224
    14  H    3.910276   4.993047   3.425623   4.302157   2.215363
                   11         12         13         14
    11  H    0.000000
    12  C    2.216816   0.000000
    13  H    2.255671   1.166369   0.000000
    14  H    2.616986   1.080991   2.195837   0.000000
 Stoichiometry    C6H8
 Framework group  C1[X(C6H8)]
 Deg. of freedom    36
 Full point group                 C1      NOp   1
 Largest Abelian subgroup         C1      NOp   1
 Largest concise Abelian subgroup C1      NOp   1
                         Standard orientation:                         
 ---------------------------------------------------------------------
 Center     Atomic      Atomic             Coordinates (Angstroms)
 Number     Number       Type             X           Y           Z
 ---------------------------------------------------------------------
      1          6           0        1.508035   -0.595501   -0.011966
      2          1           0        1.993140   -0.855158    0.924204
      3          1           0        1.891590   -0.763000   -1.020345
      4          6           0        1.087296    0.948329   -0.013871
      5          1           0        1.904937    1.662484   -0.101942
      6          6           0       -0.143869    1.418856    0.016640
      7          1           0       -0.259728    2.502600   -0.008575
      8          6           0       -1.343620    0.612587   -0.020573
      9          1           0       -2.331595    1.056444   -0.058640
     10          6           0       -1.255517   -0.763294   -0.035587
     11          1           0       -2.202555   -1.299535   -0.087603
     12          6           0        0.003412   -1.476385    0.041646
     13          1           0       -0.253388   -0.710080    0.882625
     14          1           0        0.123170   -2.461305   -0.387459
 ---------------------------------------------------------------------
 Rotational constants (GHZ):      5.0737264      4.7226227      2.5169766
 Standard basis: 6-31G(d) (6D, 7F)
 There are   106 symmetry adapted basis functions of A   symmetry.
 Integral buffers will be    131072 words long.
 Raffenetti 2 integral format.
 Two-electron integral symmetry is turned on.
   106 basis functions,   200 primitive gaussians,   106 cartesian basis functions
    22 alpha electrons       22 beta electrons
       nuclear repulsion energy       216.4097337779 Hartrees.
 NAtoms=   14 NActive=   14 NUniq=   14 SFac= 1.00D+00 NAtFMM=   60 NAOKFM=F Big=F
 One-electron integrals computed using PRISM.
 NBasis=   106 RedAO= T  NBF=   106
 NBsUse=   106 1.00D-06 NBFU=   106
 Initial guess read from the read-write file.
 B after Tr=     0.000000    0.000000    0.000000
         Rot=    1.000000    0.000000    0.000000    0.000000 Ang=   0.00 deg.
 Initial guess orbital symmetries:
       Occupied  (A) (A) (A) (A) (A) (A) (A) (A) (A) (A) (A) (A)
                 (A) (A) (A) (A) (A) (A) (A) (A) (A) (A)
       Virtual   (A) (A) (A) (A) (A) (A) (A) (A) (A) (A) (A) (A)
                 (A) (A) (A) (A) (A) (A) (A) (A) (A) (A) (A) (A)
                 (A) (A) (A) (A) (A) (A) (A) (A) (A) (A) (A) (A)
                 (A) (A) (A) (A) (A) (A) (A) (A) (A) (A) (A) (A)
                 (A) (A) (A) (A) (A) (A) (A) (A) (A) (A) (A) (A)
                 (A) (A) (A) (A) (A) (A) (A) (A) (A) (A) (A) (A)
                 (A) (A) (A) (A) (A) (A) (A) (A) (A) (A) (A) (A)
 Harris functional with IExCor=  402 diagonalized for initial guess.
 ExpMin= 1.61D-01 ExpMax= 3.05D+03 ExpMxC= 4.57D+02 IAcc=1 IRadAn=         1 AccDes= 0.00D+00
 HarFok:  IExCor=  402 AccDes= 0.00D+00 IRadAn=         1 IDoV= 1
 ScaDFX=  1.000000  1.000000  1.000000  1.000000
 FoFCou: FMM=F IPFlag=           0 FMFlag=      100000 FMFlg1=           0
         NFxFlg=           0 DoJE=T BraDBF=F KetDBF=T FulRan=T
         Omega=  0.000000  0.000000  1.000000  0.000000  0.000000 ICntrl=     500 IOpCl=  0
         NMat0=    1 NMatS0=    1 NMatT0=    0 NMatD0=    1 NMtDS0=    0 NMtDT0=    0
         I1Cent=           4 NGrid=           0.
 Petite list used in FoFCou.
 Requested convergence on RMS density matrix=1.00D-08 within 128 cycles.
 Requested convergence on MAX density matrix=1.00D-06.
 Requested convergence on             energy=1.00D-06.
 No special actions if energy rises.
 Keep R1 ints in memory in canonical form, NReq=17178799.
 Integral accuracy reduced to 1.0D-05 until final iterations.
 Initial convergence to 1.0D-05 achieved.  Increase integral accuracy.
 SCF Done:  E(RB3LYP) =  -233.262251164     A.U. after   16 cycles
             Convg  =    0.2661D-08             -V/T =  2.0100
 Calling FoFJK, ICntrl=      2127 FMM=F ISym2X=0 I1Cent= 0 IOpClX= 0 NMat=1 NMatS=1 NMatT=0.
 ***** Axes restored to original set *****
 -------------------------------------------------------------------
 Center     Atomic                   Forces (Hartrees/Bohr)
 Number     Number              X              Y              Z
 -------------------------------------------------------------------
      1        6           0.034580903   -0.072538708   -0.052003528
      2        1           0.003835962    0.019360406   -0.001772730
      3        1          -0.009798734    0.019866735    0.017622008
      4        6           0.000470368    0.048842747    0.034035568
      5        1          -0.000364842    0.002423064    0.002928372
      6        6           0.007890374   -0.030327104   -0.017987051
      7        1           0.001447813   -0.002069180    0.000384901
      8        6           0.013352272   -0.005011494    0.001646225
      9        1          -0.005348596   -0.001156532    0.001185013
     10        6           0.019006696   -0.013778191   -0.074001193
     11        1           0.000526764    0.004485820    0.009653527
     12        6          -0.068628194    0.025019795   -0.033823336
     13        1           0.005384802    0.017670941    0.084721376
     14        1          -0.002355589   -0.012788299    0.027410847
 -------------------------------------------------------------------
 Cartesian Forces:  Max     0.084721376 RMS     0.029489483

 GradGradGradGradGradGradGradGradGradGradGradGradGradGradGradGradGradGrad
 Berny optimization.
 Using GEDIIS/GDIIS optimizer.
 Internal  Forces:  Max     0.035530651 RMS     0.012801190
 Search for a local minimum.
 Step number   4 out of a maximum of   85
 All quantities printed in internal units (Hartrees-Bohrs-Radians)
 Mixed Optimization -- RFO/linear search
 Update second derivatives using D2CorX and points    3    4
 DE= -9.04D-02 DEPred=-8.20D-02 R= 1.10D+00
 SS=  1.41D+00  RLast= 1.07D+00 DXNew= 8.4853D-01 3.2094D+00
 Trust test= 1.10D+00 RLast= 1.07D+00 DXMaxT set to 8.49D-01
 ITU=  1  0  1  0
 Use linear search instead of GDIIS.
     Eigenvalues ---    0.00732   0.00836   0.01248   0.01474   0.01538
     Eigenvalues ---    0.01857   0.01971   0.02359   0.03126   0.04084
     Eigenvalues ---    0.05045   0.05858   0.09126   0.09940   0.15673
     Eigenvalues ---    0.15950   0.15992   0.16032   0.16681   0.20916
     Eigenvalues ---    0.21326   0.22001   0.26915   0.28532   0.32047
     Eigenvalues ---    0.37103   0.37224   0.37228   0.37230   0.37230
     Eigenvalues ---    0.37230   0.37454   0.39874   0.41850   0.51646
     Eigenvalues ---    0.53360
 RFO step:  Lambda=-6.17934585D-02 EMin= 7.31907176D-03
 Quartic linear search produced a step of  0.75245.
 Iteration  1 RMS(Cart)=  0.09494234 RMS(Int)=  0.04305379
 Iteration  2 RMS(Cart)=  0.03563649 RMS(Int)=  0.01486572
 Iteration  3 RMS(Cart)=  0.00288811 RMS(Int)=  0.01457152
 Iteration  4 RMS(Cart)=  0.00008471 RMS(Int)=  0.01457137
 Iteration  5 RMS(Cart)=  0.00000260 RMS(Int)=  0.01457137
 Iteration  6 RMS(Cart)=  0.00000007 RMS(Int)=  0.01457137
 Variable       Old X    -DE/DX   Delta X   Delta X   Delta X     New X
                                 (Linear)    (Quad)   (Total)
    R1        2.05204  -0.00113  -0.00958   0.00614  -0.00344   2.04860
    R2        2.06318   0.00028  -0.00461   0.00884   0.00423   2.06741
    R3        3.02382  -0.02923   0.06044  -0.06399  -0.00193   3.02189
    R4        3.29632  -0.03240   0.03190  -0.09149  -0.05615   3.24017
    R5        2.05825   0.00029   0.00972  -0.00148   0.00824   2.06649
    R6        2.49135   0.03553  -0.10204   0.13061   0.02722   2.51858
    R7        2.06020  -0.00038   0.00732  -0.00157   0.00574   2.06594
    R8        2.73251  -0.00084   0.02415  -0.00178   0.01944   2.75195
    R9        2.04802  -0.00036   0.00329  -0.00017   0.00311   2.05114
   R10        2.60552  -0.00376  -0.08920   0.01734  -0.07395   2.53157
   R11        2.05897  -0.00046   0.00319   0.00083   0.00402   2.06299
   R12        2.73806   0.02166   0.03233   0.02396   0.00985   2.74791
   R13        2.57045   0.03534   0.12018   0.15255   0.31319   2.88364
   R14        2.20412  -0.01795   0.03333  -0.06275  -0.02407   2.18004
   R15        2.04278  -0.00026  -0.00055   0.00196   0.00142   2.04419
    A1        1.92751   0.00281   0.09010  -0.01004   0.07508   2.00258
[...]
 ! R6    R(4,6)                  1.3433         -DE/DX =    0.0                 !
 ! R7    R(6,7)                  1.0878         -DE/DX =    0.0                 !
 ! R8    R(6,8)                  1.4673         -DE/DX =    0.0                 !
 ! R9    R(8,9)                  1.0877         -DE/DX =    0.0                 !
 ! R10   R(8,10)                 1.3433         -DE/DX =    0.0                 !
 ! R11   R(10,11)                1.0879         -DE/DX =    0.0                 !
 ! R12   R(10,12)                1.5123         -DE/DX =   -0.0001              !
 ! R13   R(10,13)                2.1353         -DE/DX =    0.0                 !
 ! R14   R(12,13)                1.1036         -DE/DX =    0.0001              !
 ! R15   R(12,14)                1.0963         -DE/DX =    0.0                 !
 ! A1    A(2,1,4)              110.8727         -DE/DX =    0.0                 !
 ! A2    A(2,1,12)             109.9383         -DE/DX =    0.0                 !
 ! A3    A(3,1,4)              108.4222         -DE/DX =    0.0                 !
 ! A4    A(3,1,12)             109.5306         -DE/DX =    0.0                 !
 ! A5    A(4,1,12)             111.9092         -DE/DX =    0.0                 !
 ! A6    A(1,4,5)              118.6607         -DE/DX =    0.0                 !
 ! A7    A(1,4,6)              120.4154         -DE/DX =    0.0                 !
 ! A8    A(5,4,6)              120.802          -DE/DX =    0.0                 !
 ! A9    A(4,6,7)              120.7329         -DE/DX =    0.0                 !
 ! A10   A(4,6,8)              120.7247         -DE/DX =    0.0                 !
 ! A11   A(7,6,8)              118.5329         -DE/DX =    0.0                 !
 ! A12   A(6,8,9)              118.5391         -DE/DX =    0.0                 !
 ! A13   A(6,8,10)             120.7154         -DE/DX =    0.0                 !
 ! A14   A(9,8,10)             120.7348         -DE/DX =    0.0                 !
 ! A15   A(8,10,11)            120.8291         -DE/DX =    0.0                 !
 ! A16   A(8,10,12)            120.4144         -DE/DX =    0.0                 !
 ! A17   A(8,10,13)            116.6041         -DE/DX =    0.0                 !
 ! A18   A(11,10,12)           118.6336         -DE/DX =    0.0                 !
 ! A19   A(11,10,13)           112.3925         -DE/DX =    0.0                 !
 ! A20   A(1,12,10)            111.9233         -DE/DX =    0.0                 !
 ! A21   A(1,12,13)            109.5277         -DE/DX =    0.0                 !
 ! A22   A(1,12,14)            109.9422         -DE/DX =    0.0                 !
 ! A23   A(10,12,14)           110.8669         -DE/DX =    0.0                 !
 ! A24   L(2,1,3,4,-1)         219.2949         -DE/DX =    0.0                 !
 ! A25   L(13,12,14,1,-1)      219.4698         -DE/DX =    0.0                 !
 ! A26   L(2,1,3,4,-2)         115.9425         -DE/DX =    0.0                 !
 ! A27   L(13,12,14,1,-2)      116.0464         -DE/DX =    0.0                 !
 ! D1    D(2,1,4,5)             30.7786         -DE/DX =    0.0                 !
 ! D2    D(2,1,4,6)           -153.2019         -DE/DX =    0.0                 !
 ! D3    D(3,1,4,5)            -85.164          -DE/DX =    0.0                 !
 ! D4    D(3,1,4,6)             90.8555         -DE/DX =    0.0                 !
 ! D5    D(12,1,4,5)           153.9214         -DE/DX =    0.0                 !
 ! D6    D(12,1,4,6)           -30.0591         -DE/DX =    0.0                 !
 ! D7    D(2,1,12,10)          165.8135         -DE/DX =    0.0                 !
 ! D8    D(2,1,12,13)           45.535          -DE/DX =    0.0                 !
 ! D9    D(2,1,12,14)          -70.5114         -DE/DX =    0.0                 !
 ! D10   D(3,1,12,10)          -78.1264         -DE/DX =    0.0                 !
 ! D11   D(3,1,12,13)          161.5952         -DE/DX =    0.0                 !
 ! D12   D(3,1,12,14)           45.5488         -DE/DX =    0.0                 !
 ! D13   D(4,1,12,10)           42.1436         -DE/DX =    0.0                 !
 ! D14   D(4,1,12,13)          -78.1349         -DE/DX =    0.0                 !
 ! D15   D(4,1,12,14)          165.8187         -DE/DX =    0.0                 !
 ! D16   D(1,4,6,7)           -176.8884         -DE/DX =    0.0                 !
 ! D17   D(1,4,6,8)              1.9765         -DE/DX =    0.0                 !
 ! D18   D(5,4,6,7)             -0.9549         -DE/DX =    0.0                 !
 ! D19   D(5,4,6,8)            177.9099         -DE/DX =    0.0                 !
 ! D20   D(4,6,8,9)           -167.442          -DE/DX =    0.0                 !
 ! D21   D(4,6,8,10)            13.7396         -DE/DX =    0.0                 !
 ! D22   D(7,6,8,9)             11.4474         -DE/DX =    0.0                 !
 ! D23   D(7,6,8,10)          -167.371          -DE/DX =    0.0                 !
 ! D24   D(6,8,10,11)          177.8522         -DE/DX =    0.0                 !
 ! D25   D(6,8,10,12)            1.9382         -DE/DX =    0.0                 !
 ! D26   D(6,8,10,13)           35.1894         -DE/DX =    0.0                 !
 ! D27   D(9,8,10,11)           -0.9402         -DE/DX =    0.0                 !
 ! D28   D(9,8,10,12)         -176.8542         -DE/DX =    0.0                 !
 ! D29   D(9,8,10,13)         -143.603          -DE/DX =    0.0                 !
 ! D30   D(8,10,12,1)          -30.0257         -DE/DX =    0.0                 !
 ! D31   D(8,10,12,14)        -153.1795         -DE/DX =    0.0                 !
 ! D32   D(11,10,12,1)         153.9716         -DE/DX =    0.0                 !
 ! D33   D(11,10,12,14)         30.8179         -DE/DX =    0.0                 !
 --------------------------------------------------------------------------------
 GradGradGradGradGradGradGradGradGradGradGradGradGradGradGradGradGradGrad

 1\1\GINC-NISER-THINKCENTRE-M93P\Freq\RB3LYP\6-31G(d)\C6H8\STUDENT\02-M
 ar-2021\0\\#N Geom=AllCheck Guess=TCheck SCRF=Check GenChk RB3LYP/6-31
 G(d) Freq\\Title Card Required\\0,1\C,-1.8628053987,0.7318332594,1.760
 0306141\H,-2.3307415567,1.3976458633,2.494664874\H,-1.2610677817,1.381
 4138421,1.1013088503\C,-2.9098213969,0.0368907888,0.9189095775\H,-3.84
 66607147,0.5531142644,0.7205074109\C,-2.6520415989,-1.1585795184,0.363
 0741834\H,-3.3821914542,-1.6399059125,-0.2837874271\C,-1.3694073193,-1
 .8323884425,0.595292189\H,-1.1115410977,-2.6872953692,-0.0258625634\C,
 -0.5428311406,-1.4173792859,1.5694531794\H,0.3925598659,-1.9369552916,
 1.7659041182\C,-0.9400892015,-0.2729218723,2.4746719598\H,-1.459240763
 7,-0.6887625185,3.3552365527\H,-0.0543571312,0.243486163,2.8628788513\
 \Version=EM64L-G09RevC.01\State=1-A\HF=-233.4189362\RMSD=4.637e-09\RMS
 F=3.182e-05\ZeroPoint=0.1228293\Thermal=0.1280028\Dipole=0.0368428,0.1
 042143,0.0994876\DipoleDeriv=0.0642109,0.0066025,-0.0994268,0.0189557,
 0.1098415,-0.017468,-0.1280476,0.0076456,0.1377853,0.004112,0.0699106,
 0.0497948,0.0526637,-0.0494375,-0.0804755,0.0452154,-0.1120006,-0.0477
 273,-0.0174079,-0.1581449,0.0234918,-0.0439079,-0.0651231,0.0693237,0.
 0543667,0.0656429,-0.0474936,-0.0302624,0.0843992,0.0841117,-0.044311,
 0.0609482,0.0998651,0.1025885,0.0586546,-0.1188745,-0.0946487,0.072186
 3,-0.0738351,0.0772993,0.011325,-0.0191792,-0.0592663,-0.0145063,0.075
 7432,0.1495187,-0.0613955,0.1230103,0.0925109,-0.1072693,0.075555,0.16
 23204,-0.0056462,-0.039165,-0.0410659,-0.0297681,-0.1009597,-0.0450308
 ,0.0247756,-0.0807169,-0.0980282,-0.0815526,0.0203181,0.0131931,-0.104
 3032,0.0092142,-0.184756,0.0761168,0.0432513,-0.1076231,0.1515194,-0.0
 865871,0.0356144,0.0584187,-0.0042535,0.0572221,-0.0499857,-0.1150498,
 0.0103752,-0.1201657,0.0184399,-0.0772616,-0.0572496,-0.0075284,-0.074
 0537,-0.0491711,0.1158312,0.127301,0.1029975,0.0384002,-0.0739037,0.11
 02757,-0.0394353,0.097579,0.0112206,-0.0238484,-0.0461302,-0.031317,0.
 0551436,0.1350308,0.0860945,-0.0116501,0.1198102,0.0544628,-0.035261,-
 0.0315688,-0.0432961,0.1221928,0.0282551,-0.0068865,0.1363468,-0.04962
 78,-0.0191487,0.0258976,0.0301846,0.0562513,-0.1390993,-0.0953847,-0.0
 701398,-0.0888807,-0.0743539,-0.0085552,-0.0577251,-0.0616874,-0.03422
 7,0.0109236\Polar=60.6335854,-8.6147978,60.6899045,12.2594329,12.17300
 27,51.829819\PG=C01 [X(C6H8)]\NImag=0\\0.48937655,-0.00798446,0.530825
 62,-0.05263164,0.03452548,0.53547096,-0.09668845,0.06868140,0.07628755
 ,0.10543498,0.06721662,-0.13983608,-0.10458585,-0.07389361,0.15338708,
 0.07573602,-0.10565639,-0.16790021,-0.08023673,0.11412758,0.18224145,-
 0.12079278,-0.07668169,0.08443477,-0.00832849,-0.00807994,0.00930385,0
 .13250955,-0.07347522,-0.12871306,0.08652809,0.01093333,0.01251248,-0.
 01166970,0.08617280,0.13990068,0.07761862,0.08073447,-0.13422288,0.013
 01693,0.01325823,-0.01449660,-0.08485865,-0.09380701,0.14846148,-0.144
 76970,-0.02962775,-0.05435246,0.01165578,0.00557055,0.00909595,-0.0135
 9178,-0.01226880,-0.00944319,0.55411369,-0.03439220,-0.10870506,-0.036
 72609,-0.01718914,-0.01142935,-0.01014341,-0.01705780,-0.01322522,-0.0
 1211527,-0.16969738,0.69204971,-0.04939097,-0.03542230,-0.11463060,-0.
 01889082,-0.01047817,-0.01159527,0.00849204,0.00403088,0.01409947,0.11
 079029,0.21553573,0.30779629,-0.01099798,0.01187660,-0.00221744,0.0010
 6303,-0.00028986,-0.00026979,-0.00045186,-0.00063965,0.00020715,-0.261
 83256,0.11790249,-0.05180337,0.27333627,-0.01162253,0.01039836,-0.0031
 9131,0.00047653,0.00085559,0.00015973,0.00015787,-0.00055365,0.0008546
 6,0.11500495,-0.11603019,0.01481722,-0.12886897,0.11826887,-0.01455350
 ,0.00771099,-0.00239401,0.00083605,0.00067005,0.00074958,-0.00096915,0
 .00001161,-0.00055765,-0.05279638,0.01839689,-0.04955929,0.05795990,-0
 .01305303,0.04446541,0.00776285,-0.02249558,-0.00843404,-0.00402880,-0
 .00245341,-0.00321705,-0.00229401,-0.00283742,-0.00044607,-0.11487639,
 0.07247061,0.00503197,-0.00202995,0.02736408,0.01213686,0.53407111,-0.
 00633345,-0.01934068,-0.01462866,-0.00081171,0.00100911,-0.00081010,0.
 00182733,0.00207083,-0.00276532,0.08031618,-0.42085381,-0.16436735,0.0
 0195569,-0.00884554,-0.00939767,-0.07642580,0.66518815,-0.00077498,-0.
 01948084,-0.00410574,-0.00253770,-0.00126494,-0.00181480,-0.00061184,-
 0.00074210,-0.00073175,0.01333235,-0.17630596,-0.14695495,-0.00258899,
 0.00609572,0.00661275,0.16027676,0.27852895,0.37112338,0.00250001,0.00
 328981,-0.00337499,-0.00033141,-0.00008573,-0.00014052,0.00068566,0.00
 049991,0.00080217,0.00816814,0.00418829,0.00432200,-0.00016713,-0.0016
 6971,0.00257316,-0.18212234,-0.07787445,-0.11746498,0.18824044,0.00562
 784,-0.00096919,-0.00559637,-0.00155761,-0.00094963,-0.00116600,0.0006
 1628,0.00035058,0.00077664,-0.02213925,-0.00989550,-0.01842335,-0.0013
 1470,-0.00063839,0.00325201,-0.07710775,-0.10514070,-0.08059531,0.0822
 3049,0.10929956,-0.00221475,-0.00491140,0.00789339,0.00056741,0.000099
 19,0.00047584,-0.00142900,-0.00103312,-0.00151323,-0.01070291,-0.00537
 541,-0.00429722,0.00278207,0.00281620,-0.00406473,-0.11665417,-0.08164
 044,-0.14280405,0.12960914,0.09094029,0.14330328,-0.00109364,-0.004245
 75,0.00033099,0.00028508,0.00003966,-0.00047335,0.00024682,0.00081404,
 -0.00270915,-0.01176314,0.03133243,0.01303090,0.00346773,0.00085380,-0
 .00406159,-0.20375820,0.05039738,-0.03948315,-0.01324786,0.01143189,-0
 .00214472,0.54987044,-0.00169428,0.00146742,0.00223060,0.00058688,0.00
 037316,0.00094023,-0.00047141,0.00013557,0.00069892,0.03149768,-0.0207
 2570,-0.00032959,0.00241600,-0.00161881,-0.00534617,0.07335767,-0.1216
 2148,-0.00621116,-0.01414104,0.00904356,-0.00221571,-0.08475659,0.4897
 6022,0.00038543,0.00247433,-0.00735922,-0.00022841,0.00004174,-0.00013
 256,0.00235648,0.00002967,0.00035857,0.00706914,0.00211985,0.01560319,
 -0.00241004,-0.00715072,0.00633622,-0.02186960,-0.01789312,-0.08702369
 ,-0.01648563,0.01025812,-0.00080851,0.21163311,0.27912686,0.53069748,-
 0.00040336,-0.00002935,0.00021725,0.00008245,0.00001993,0.00010787,0.0
 0014395,0.00001596,0.00007821,-0.00526032,0.00122387,-0.00224276,0.000
 09862,0.00169142,0.00016082,-0.00200015,0.02165281,0.01684970,0.000888
 73,-0.00084145,0.00009054,-0.07179284,0.05860350,0.03236527,0.06913119
 ,-0.00004506,0.00075959,0.00055756,-0.00008072,0.00002951,-0.00005819,
 0.00001533,-0.00009727,0.00001976,0.00250731,0.00083760,0.00059796,0.0
 0007083,-0.00061615,-0.00025502,0.00124830,-0.00849631,-0.00818843,-0.
 00000477,0.00029413,0.00089921,0.05743513,-0.22157742,-0.13360668,-0.0
 6481932,0.23067374,-0.00011016,0.00016110,-0.00046637,0.00016981,-0.00
 011878,0.00006148,-0.00005168,0.00000732,-0.00000413,-0.00103691,0.000
 14723,0.00057122,-0.00016661,0.00035194,0.00010764,-0.00292958,0.00621
 436,0.00548924,0.00059531,0.00008635,-0.00003547,0.03199944,-0.1326926
 0,-0.13672410,-0.03070837,0.14733782,0.14105396,-0.00867862,0.01961762
 ,0.01298978,-0.00185254,0.00331998,-0.00242271,0.00037015,-0.00038396,
 0.00105601,-0.00114390,-0.00839129,-0.00651908,0.00015240,-0.00055853,
 0.00120095,-0.03472414,0.00911998,-0.02428859,-0.00398407,0.00259438,-
 0.00030221,-0.24680652,-0.06604000,-0.19890980,0.00919656,0.00408230,0
 .00715259,0.63276204,0.01359173,-0.01818904,-0.01100216,0.00101717,-0.
 00119606,0.00178259,-0.00221148,0.00114714,0.00051078,0.00426625,-0.00
 364508,-0.00421071,-0.00095917,-0.00066640,0.00024485,0.00273488,0.018
 52394,0.01094381,0.00401936,-0.00123508,0.00000588,-0.05344725,-0.1335
 4401,-0.11054748,-0.01721250,-0.00448956,-0.02019788,-0.10847364,0.406
 42791,-0.00218645,0.00646412,0.01435128,-0.00357178,0.00353986,-0.0019
 9446,-0.00050123,-0.00053560,0.00022981,0.00490577,-0.00590650,-0.0035
 4241,-0.00019497,-0.00043525,-0.00014883,-0.02334488,0.01095202,-0.000
 73563,0.00075549,-0.00039133,0.00136533,-0.19564762,-0.12074794,-0.302
 31722,-0.01315103,-0.00525386,-0.01073029,0.25569893,0.18845132,0.5146
 5167,0.00021677,0.00040765,0.00064070,-0.00024448,0.00036469,-0.000427
 07,0.00035851,-0.00021147,0.00013310,0.00016934,-0.00001108,0.00067491
 ,-0.00037967,-0.00022513,0.00068997,0.00260538,0.00025321,-0.00572042,
 -0.00051096,0.00048262,-0.00018814,-0.01399772,0.01161449,-0.00306357,
 -0.00059947,-0.00250942,0.00233156,-0.25768522,0.12179574,-0.04955470,
 0.27134570,0.00033907,-0.00141814,-0.00547877,0.00082153,-0.00077455,0
 .00064565,0.00037960,-0.00038007,0.00035835,-0.00114001,0.00022795,0.0
 0032543,-0.00033813,-0.00027835,0.00095582,0.00256038,0.00401005,-0.00
 531681,-0.00020105,0.00009404,-0.00014328,-0.01009639,0.00858220,-0.00
 467064,-0.00212822,-0.00189696,0.00353669,0.12422270,-0.11109094,0.016
 26774,-0.13263143,0.11176015,0.00119002,-0.00239554,-0.00193341,0.0007
 4008,-0.00101295,0.00084021,-0.00035490,0.00032755,-0.00007383,0.00004
 114,-0.00062649,-0.00105924,0.00045551,0.00060303,-0.00067088,-0.00485
 549,-0.00684693,0.00157006,-0.00150061,0.00081236,0.00000851,-0.021653
 29,0.01221238,0.00116984,0.00251293,0.00310566,-0.00237317,-0.04809064
 ,0.01252554,-0.05866209,0.05730465,-0.01191134,0.05297498,-0.11165927,
 0.03746237,-0.03137027,-0.00822429,0.00901693,-0.00747450,0.01113150,-
 0.01145892,0.00758042,-0.02118640,0.01521140,-0.01534340,-0.00188647,-
 0.00226666,-0.00211201,0.00069224,-0.00199002,0.00264708,-0.00019478,0
 .00013643,0.00059516,0.01071657,-0.01299523,-0.01059533,0.00036295,0.0
 0200803,-0.00771047,-0.09571925,0.02811265,0.01471307,-0.00214898,0.01
 812618,0.01465620,0.54292574,0.03959950,-0.12660447,0.02998024,0.01195
 182,-0.01476875,0.01276696,0.01142220,-0.01239533,0.00894527,-0.005474
 73,0.01497648,-0.00343434,-0.00278472,-0.00098262,-0.00430436,-0.00173
 997,-0.00639498,0.00210026,-0.00004134,-0.00043289,0.00054053,-0.00243
 715,-0.00513147,-0.01587079,0.00312801,0.00549434,-0.00457454,0.031808
 78,-0.15103390,-0.06179840,0.00036878,-0.00899529,-0.00793090,0.061226
 54,0.49482056,-0.02764804,0.03483930,-0.10528689,0.01372195,-0.0140005
 4,0.01177833,-0.01375710,0.01538337,-0.01139233,-0.01509582,0.00858965
 ,-0.00639232,-0.00109032,-0.00139195,-0.00026734,0.00510571,0.00149735
 ,-0.00129290,0.00043884,0.00008212,0.00051578,0.00296489,-0.02282343,-
 0.02127433,-0.00526543,-0.00433755,0.00357089,0.01078782,-0.05738226,-
 0.12130035,-0.00372432,0.00513094,0.00813147,0.01600820,0.00812411,0.5
 1810377,0.01041632,0.00902134,-0.01588420,0.00146919,-0.00096574,0.000
 16092,-0.00169288,0.00311180,-0.00309395,0.00107816,0.00023844,0.00227
 460,0.00031285,0.00026106,-0.00048360,0.00032683,-0.00211126,0.0005848
 5,0.00008424,0.00001122,-0.00007526,-0.00138125,0.00036206,-0.00139596
 ,0.00021522,0.00031236,-0.00024742,-0.00219843,0.00020277,0.00757775,-
 0.00000717,0.00071170,-0.00004026,-0.10506292,-0.04643446,0.09086763,0
 .11008696,-0.01058596,-0.01097354,0.01715690,-0.00062723,0.00063002,-0
 .00034743,0.00416270,-0.00250973,0.00300270,-0.00107558,0.00044008,0.0
 0007887,-0.00012107,-0.00010307,0.00054874,0.00271376,0.00021826,-0.00
 048643,-0.00010644,0.00002227,0.00006638,0.00004947,-0.00122015,-0.002
 15399,-0.00116873,-0.00145299,0.00141514,0.01114134,0.01065229,-0.0222
 6776,-0.00002481,-0.00080040,0.00092149,-0.04231607,-0.08098339,0.0686
 3000,0.04606918,0.09256074,0.00752950,0.00777727,-0.01209329,0.0000854
 0,-0.00051273,0.00168361,-0.00237160,0.00222381,-0.00047733,0.00017970
 ,-0.00077348,0.00022329,0.00005318,0.00015642,-0.00030669,-0.00078563,
 0.00112046,0.00019232,-0.00008158,0.00001065,-0.00006398,0.00367856,-0
 .00197931,0.00163954,-0.00079995,-0.00098884,0.00076021,0.00895510,-0.
 00027350,-0.02114733,0.00039899,-0.00049589,-0.00075051,0.08996899,0.0
 7715784,-0.19776997,-0.10207542,-0.07956933,0.21830334,-0.01518870,-0.
 00929221,-0.00663602,-0.00029204,0.00021994,0.00025710,0.00170568,-0.0
 0027239,0.00005840,-0.00076090,0.00417135,-0.00042632,-0.00068527,-0.0
 0059820,-0.00058149,0.00037557,0.00002411,-0.00022007,-0.00000866,-0.0
 0017037,0.00006684,-0.00074546,0.00166027,0.00114891,-0.00006353,-0.00
 022032,0.00071251,0.01031156,0.00656350,0.00450165,0.00087797,-0.00062
 593,-0.00040534,-0.21974665,-0.10059327,-0.07331401,-0.01364713,-0.008
 11055,-0.00473524,0.23786757,0.01975841,0.01129828,0.01023035,-0.00030
 864,0.00015747,-0.00057153,-0.00025181,0.00175705,-0.00047217,0.002260
 56,-0.00402191,0.00127972,0.00109465,0.00081035,0.00056529,0.00061026,
 -0.00032684,0.00092322,-0.00010333,0.00015724,-0.00004833,0.00262933,-
 0.00392308,-0.00215715,-0.00013591,0.00053775,-0.00167415,-0.02205965,
 -0.01166120,-0.00833841,0.00032616,0.00096032,0.00021611,-0.10027363,-
 0.10756829,-0.04234109,-0.01079046,-0.00648038,-0.00385338,0.10724406,
 0.11830326,-0.01294911,-0.00682058,-0.00732303,0.00004026,0.00023731,0
 .00010340,0.00031803,-0.00075479,0.00032039,-0.00198666,0.00318326,-0.
 00026218,-0.00071628,-0.00063266,-0.00030218,-0.00001478,0.00003645,0.
 00047575,-0.00004780,-0.00004620,0.00002507,0.00253497,-0.00286309,-0.
 00016523,-0.00021505,0.00017062,-0.00128113,-0.01730816,-0.01085077,-0
 .01001945,0.00050434,0.00079609,0.00082805,-0.07156314,-0.04170188,-0.
 07712381,0.02183032,0.01300473,0.00980680,0.07957307,0.04624152,0.0849
 1755\\-0.00002510,0.00006896,0.00001907,0.00000604,-0.00000402,-0.0000
 0345,-0.00000261,-0.00002090,-0.00000346,-0.00001822,0.00003013,0.0000
 0915,0.00000289,0.00000556,-0.00000571,-0.00001191,0.00002261,-0.00004
 431,0.00000057,-0.00002050,0.00000937,0.00003063,-0.00002691,-0.000008
 67,-0.00001550,-0.00000158,0.00000595,0.00002479,-0.00009378,-0.000076
 75,-0.00000237,0.00001660,0.00005012,0.00002106,0.00001803,0.00008424,
 0.00001570,0.00002625,-0.00004126,-0.00002599,-0.00002043,0.00000572\\
 \@


 SACRED COWS MAKE GREAT HAMBURGERS -- ROBERT REISNER
 Job cpu time:  0 days  0 hours  2 minutes 31.9 seconds.
 File lengths (MBytes):  RWF=     24 Int=      0 D2E=      0 Chk=      2 Scr=      1
 Normal termination of Gaussian 09 at Tue Mar  2 15:35:00 2021.
 cpu time:  0 days  0 hours  2 minutes 51.7 seconds.
 File lengths (MBytes):  RWF=     24 Int=      0 D2E=      0 Chk=      2 Scr=      1
 Normal termination of Gaussian 09 at Tue Mar  2 15:30:13 2021.
