 Entering Gaussian System, Link 0=g09
 Input=oct07.com
 Output=oct07.log
 Initial command:
 /home/student/g09/l1.exe /home/student/singh/other/Gau-23268.inp -scrdir=/home/student/singh/other/
 Entering Link 1 = /home/student/g09/l1.exe PID=     23270.
  
 Copyright (c) 1988,1990,1992,1993,1995,1998,2003,2009,2011,
            Gaussian, Inc.  All Rights Reserved.
  
 This is part of the Gaussian(R) 09 program.  It is based on
 the Gaussian(R) 03 system (copyright 2003, Gaussian, Inc.),
 the Gaussian(R) 98 system (copyright 1998, Gaussian, Inc.),
 the Gaussian(R) 94 system (copyright 1995, Gaussian, Inc.),
 the Gaussian 92(TM) system (copyright 1992, Gaussian, Inc.),
 the Gaussian 90(TM) system (copyright 1990, Gaussian, Inc.),
 the Gaussian 88(TM) system (copyright 1988, Gaussian, Inc.),
 the Gaussian 86(TM) system (copyright 1986, Carnegie Mellon
 University), and the Gaussian 82(TM) system (copyright 1983,
 Carnegie Mellon University). Gaussian is a federally registered
 trademark of Gaussian, Inc.
  
 This software contains proprietary and confidential information,
 including trade secrets, belonging to Gaussian, Inc.
  
 This software is provided under written license and may be
 used, copied, transmitted, or stored only in accord with that
 written license.
  
 The following legend is applicable only to US Government
 contracts under FAR:
  
                    RESTRICTED RIGHTS LEGEND
  
 Use, reproduction and disclosure by the US Government is
 subject to restrictions as set forth in subparagraphs (a)
 and (c) of the Commercial Computer Software - Restricted
 Rights clause in FAR 52.227-19.
  
 Gaussian, Inc.
 340 Quinnipiac St., Bldg. 40, Wallingford CT 06492
  
  
 ---------------------------------------------------------------
 Warning -- This program may not be used in any manner that
 competes with the business of Gaussian, Inc. or will provide
 assistance to any competitor of Gaussian, Inc.  The licensee
 of this program is prohibited from giving any competitor of
 Gaussian, Inc. access to this program.  By using this program,
 the user acknowledges that Gaussian, Inc. is engaged in the
 business of creating and licensing software in the field of
 computational chemistry and represents and warrants to the
 licensee that it is not a competitor of Gaussian, Inc. and that
 it will not use this program in any manner prohibited above.
 ---------------------------------------------------------------
  

 Cite this work as:
 Gaussian 09, Revision C.01,
 M. J. Frisch, G. W. Trucks, H. B. Schlegel, G. E. Scuseria, 
 M. A. Robb, J. R. Cheeseman, G. Scalmani, V. Barone, B. Mennucci, 
 G. A. Petersson, H. Nakatsuji, M. Caricato, X. Li, H. P. Hratchian, 
 A. F. Izmaylov, J. Bloino, G. Zheng, J. L. Sonnenberg, M. Hada, 
 M. Ehara, K. Toyota, R. Fukuda, J. Hasegawa, M. Ishida, T. Nakajima, 
 Y. Honda, O. Kitao, H. Nakai, T. Vreven, J. A. Montgomery, Jr., 
 J. E. Peralta, F. Ogliaro, M. Bearpark, J. J. Heyd, E. Brothers, 
 K. N. Kudin, V. N. Staroverov, T. Keith, R. Kobayashi, J. Normand, 
 K. Raghavachari, A. Rendell, J. C. Burant, S. S. Iyengar, J. Tomasi, 
 M. Cossi, N. Rega, J. M. Millam, M. Klene, J. E. Knox, J. B. Cross, 
 V. Bakken, C. Adamo, J. Jaramillo, R. Gomperts, R. E. Stratmann, 
 O. Yazyev, A. J. Austin, R. Cammi, C. Pomelli, J. W. Ochterski, 
 R. L. Martin, K. Morokuma, V. G. Zakrzewski, G. A. Voth, 
 P. Salvador, J. J. Dannenberg, S. Dapprich, A. D. Daniels, 
 O. Farkas, J. B. Foresman, J. V. Ortiz, J. Cioslowski, 
 and D. J. Fox, Gaussian, Inc., Wallingford CT, 2010.
 
 ******************************************
 Gaussian 09:  EM64L-G09RevC.01 23-Sep-2011
                 2-Mar-2021 
 ******************************************
 %chk=oct07.chk
 -----------------------------------------
 # opt freq b3lyp/6-31g* geom=connectivity
 -----------------------------------------
 1/14=-1,18=20,19=15,26=3,38=1,57=2/1,3;
 2/9=110,12=2,17=6,18=5,40=1/2;
 3/5=1,6=6,7=1,11=2,16=1,25=1,30=1,71=1,74=-5/1,2,3;
 4//1;
 5/5=2,38=5/2;
 6/7=2,8=2,9=2,10=2,28=1/1;
 7//1,2,3,16;
 1/14=-1,18=20,19=15/3(2);
 2/9=110/2;
 99//99;
 2/9=110/2;
 3/5=1,6=6,7=1,11=2,16=1,25=1,30=1,71=1,74=-5/1,2,3;
 4/5=5,16=3/1;
 5/5=2,38=5/2;
 7//1,2,3,16;
 1/14=-1,18=20,19=15/3(-5);
 2/9=110/2;
 6/7=2,8=2,9=2,10=2,19=2,28=1/1;
 99/9=1/99;
 -------------------
 Title Card Required
 -------------------
 Charge =  0 Multiplicity = 1
 Symbolic Z-Matrix:
 C                    -4.74106  -1.5629   -2.63097 
 H                    -4.11205  -1.86983  -3.44032 
 H                    -5.62486  -2.12068  -2.40144 
 C                    -4.4222   -0.47013  -1.89562 
 H                    -5.05121  -0.16319  -1.08627 
 C                    -3.1502    0.33266  -2.22597 
 H                    -2.89844   1.19546  -1.64537 
 C                    -2.3486   -0.04991  -3.24952 
 H                    -2.59515  -0.91181  -3.83366 
 C                    -1.07847   0.75863  -3.57301 
 H                    -0.83192   1.62054  -2.98886 
 C                    -0.27196   0.38225  -4.595 
 H                     0.61052   0.94403  -4.81976 
 C                    -0.62682  -0.85825  -5.43573 
 H                     0.00996  -1.15542  -6.24264 
 C                    -1.74283  -1.5748   -5.1571 
 H                    -1.98939  -2.43671  -5.74125 
 H                    -2.37961  -1.27763  -4.35019 
 

 GradGradGradGradGradGradGradGradGradGradGradGradGradGradGradGradGradGrad
 Berny optimization.
 Initialization pass.
                           ----------------------------
                           !    Initial Parameters    !
                           ! (Angstroms and Degrees)  !
 --------------------------                            --------------------------
 ! Name  Definition              Value          Derivative Info.                !
 --------------------------------------------------------------------------------
 ! R1    R(1,2)                  1.07           estimate D2E/DX2                !
 ! R2    R(1,3)                  1.07           estimate D2E/DX2                !
 ! R3    R(1,4)                  1.3552         estimate D2E/DX2                !
 ! R4    R(4,5)                  1.07           estimate D2E/DX2                !
 ! R5    R(4,6)                  1.54           estimate D2E/DX2                !
 ! R6    R(6,7)                  1.07           estimate D2E/DX2                !
 ! R7    R(6,8)                  1.3552         estimate D2E/DX2                !
 ! R8    R(8,9)                  1.07           estimate D2E/DX2                !
 ! R9    R(8,10)                 1.54           estimate D2E/DX2                !
 ! R10   R(9,18)                 0.6686         estimate D2E/DX2                !
 ! R11   R(10,11)                1.07           estimate D2E/DX2                !
 ! R12   R(10,12)                1.3552         estimate D2E/DX2                !
 ! R13   R(12,13)                1.07           estimate D2E/DX2                !
 ! R14   R(12,14)                1.54           estimate D2E/DX2                !
 ! R15   R(14,15)                1.07           estimate D2E/DX2                !
 ! R16   R(14,16)                1.3552         estimate D2E/DX2                !
 ! R17   R(16,17)                1.07           estimate D2E/DX2                !
 ! R18   R(16,18)                1.07           estimate D2E/DX2                !
 ! A1    A(2,1,3)              119.8865         estimate D2E/DX2                !
 ! A2    A(2,1,4)              120.2269         estimate D2E/DX2                !
 ! A3    A(3,1,4)              119.8865         estimate D2E/DX2                !
 ! A4    A(1,4,5)              120.2269         estimate D2E/DX2                !
 ! A5    A(1,4,6)              119.8865         estimate D2E/DX2                !
 ! A6    A(5,4,6)              119.8865         estimate D2E/DX2                !
 ! A7    A(4,6,7)              119.8865         estimate D2E/DX2                !
 ! A8    A(4,6,8)              120.2269         estimate D2E/DX2                !
 ! A9    A(7,6,8)              119.8865         estimate D2E/DX2                !
 ! A10   A(6,8,9)              120.2269         estimate D2E/DX2                !
 ! A11   A(6,8,10)             119.8865         estimate D2E/DX2                !
 ! A12   A(9,8,10)             119.8865         estimate D2E/DX2                !
 ! A13   A(8,9,18)             142.0139         estimate D2E/DX2                !
 ! A14   A(8,10,11)            119.8865         estimate D2E/DX2                !
 ! A15   A(8,10,12)            120.2269         estimate D2E/DX2                !
 ! A16   A(11,10,12)           119.8865         estimate D2E/DX2                !
 ! A17   A(10,12,13)           120.2269         estimate D2E/DX2                !
 ! A18   A(10,12,14)           119.8865         estimate D2E/DX2                !
 ! A19   A(13,12,14)           119.8865         estimate D2E/DX2                !
 ! A20   A(12,14,15)           119.8865         estimate D2E/DX2                !
 ! A21   A(12,14,16)           120.2269         estimate D2E/DX2                !
 ! A22   A(15,14,16)           119.8865         estimate D2E/DX2                !
 ! A23   A(14,16,17)           120.2269         estimate D2E/DX2                !
 ! A24   A(14,16,18)           119.8865         estimate D2E/DX2                !
 ! A25   A(17,16,18)           119.8865         estimate D2E/DX2                !
 ! A26   A(9,18,16)            157.8726         estimate D2E/DX2                !
 ! D1    D(2,1,4,5)            180.0            estimate D2E/DX2                !
 ! D2    D(2,1,4,6)              0.0            estimate D2E/DX2                !
 ! D3    D(3,1,4,5)              0.0            estimate D2E/DX2                !
 ! D4    D(3,1,4,6)            180.0            estimate D2E/DX2                !
 ! D5    D(1,4,6,7)            180.0            estimate D2E/DX2                !
 ! D6    D(1,4,6,8)              0.0            estimate D2E/DX2                !
 ! D7    D(5,4,6,7)              0.0            estimate D2E/DX2                !
 ! D8    D(5,4,6,8)            180.0            estimate D2E/DX2                !
 ! D9    D(4,6,8,9)              0.0            estimate D2E/DX2                !
 ! D10   D(4,6,8,10)           180.0            estimate D2E/DX2                !
 ! D11   D(7,6,8,9)            180.0            estimate D2E/DX2                !
 ! D12   D(7,6,8,10)             0.0            estimate D2E/DX2                !
 ! D13   D(6,8,9,18)           180.0            estimate D2E/DX2                !
 ! D14   D(10,8,9,18)            0.0            estimate D2E/DX2                !
 ! D15   D(6,8,10,11)            0.0            estimate D2E/DX2                !
 ! D16   D(6,8,10,12)          180.0            estimate D2E/DX2                !
 ! D17   D(9,8,10,11)          180.0            estimate D2E/DX2                !
 ! D18   D(9,8,10,12)            0.0            estimate D2E/DX2                !
 ! D19   D(8,9,18,16)            0.0            estimate D2E/DX2                !
 ! D20   D(8,10,12,13)         180.0            estimate D2E/DX2                !
 ! D21   D(8,10,12,14)           0.0            estimate D2E/DX2                !
 ! D22   D(11,10,12,13)          0.0            estimate D2E/DX2                !
 ! D23   D(11,10,12,14)        180.0            estimate D2E/DX2                !
 ! D24   D(10,12,14,15)       -180.0            estimate D2E/DX2                !
 ! D25   D(10,12,14,16)          0.0            estimate D2E/DX2                !
 ! D26   D(13,12,14,15)          0.0            estimate D2E/DX2                !
 ! D27   D(13,12,14,16)        180.0            estimate D2E/DX2                !
 ! D28   D(12,14,16,17)        180.0            estimate D2E/DX2                !
 ! D29   D(12,14,16,18)          0.0            estimate D2E/DX2                !
 ! D30   D(15,14,16,17)          0.0            estimate D2E/DX2                !
 ! D31   D(15,14,16,18)        180.0            estimate D2E/DX2                !
 ! D32   D(14,16,18,9)           0.0            estimate D2E/DX2                !
 ! D33   D(17,16,18,9)         180.0            estimate D2E/DX2                !
 --------------------------------------------------------------------------------
 Trust Radius=3.00D-01 FncErr=1.00D-07 GrdErr=1.00D-06
 Number of steps in this run=     87 maximum allowed number of steps=    108.
 GradGradGradGradGradGradGradGradGradGradGradGradGradGradGradGradGradGrad

                          Input orientation:                          
 ---------------------------------------------------------------------
 Center     Atomic      Atomic             Coordinates (Angstroms)
 Number     Number       Type             X           Y           Z
 ---------------------------------------------------------------------
      1          6           0       -4.741062   -1.562896   -2.630972
      2          1           0       -4.112055   -1.869829   -3.440319
      3          1           0       -5.624859   -2.120676   -2.401440
      4          6           0       -4.422203   -0.470126   -1.895615
      5          1           0       -5.051210   -0.163194   -1.086269
      6          6           0       -3.150196    0.332659   -2.225971
      7          1           0       -2.898440    1.195457   -1.645369
      8          6           0       -2.348596   -0.049908   -3.249516
      9          1           0       -2.595151   -0.911815   -3.833664
     10          6           0       -1.078472    0.758632   -3.573012
     11          1           0       -0.831917    1.620538   -2.988864
     12          6           0       -0.271964    0.382253   -4.594995
     13          1           0        0.610525    0.944031   -4.819761
     14          6           0       -0.626818   -0.858248   -5.435730
     15          1           0        0.009962   -1.155418   -6.242639
     16          6           0       -1.742831   -1.574802   -5.157102
     17          1           0       -1.989386   -2.436708   -5.741249
     18          1           0       -2.379611   -1.277631   -4.350193
 ---------------------------------------------------------------------
                    Distance matrix (angstroms):
                    1          2          3          4          5
     1  C    0.000000
     2  H    1.070000   0.000000
     3  H    1.070000   1.852234   0.000000
     4  C    1.355200   2.107479   2.103938   0.000000
     5  H    2.107479   3.055514   2.427032   1.070000   0.000000
     6  C    2.507591   2.692725   3.489068   1.540000   2.271265
     7  H    3.460518   3.753756   4.359099   2.271265   2.606327
     8  C    2.897521   2.541320   3.967520   2.511867   3.463611
     9  H    2.544663   1.836712   3.562547   2.699859   3.760431
    10  C    4.437510   4.016097   5.507506   3.937517   4.776641
    11  H    5.054083   4.811006   6.108522   4.296070   4.960242
    12  C    5.254887   4.599071   6.303160   5.023712   5.953979
    13  H    6.301981   5.667753   7.356678   5.989893   6.871692
    14  C    5.028936   4.141478   5.981727   5.204613   6.243089
    15  H    5.981839   5.035315   6.887506   6.245824   7.293018
    16  C    3.920569   2.940681   4.791847   4.363099   5.432282
    17  H    4.243712   3.181408   4.946804   4.957312   6.017680
    18  H    2.934885   2.044488   3.878144   3.293812   4.362639
                    6          7          8          9         10
     6  C    0.000000
     7  H    1.070000   0.000000
     8  C    1.355200   2.103938   0.000000
     9  H    2.107479   3.053066   1.070000   0.000000
    10  C    2.507591   2.686802   1.540000   2.271265   0.000000
    11  H    2.759539   2.501238   2.271265   3.199295   1.070000
    12  C    3.728131   4.032366   2.511867   2.766123   1.355200
    13  H    4.609181   4.738440   3.494278   3.833133   2.107479
    14  C    4.253029   4.872865   2.897837   2.538468   2.507591
    15  H    5.323025   5.926239   3.967836   3.556559   3.460518
    16  C    3.769697   4.619744   2.516174   1.708066   2.897521
    17  H    4.623209   5.549346   3.469089   2.516174   3.967520
    18  H    2.774736   3.701544   1.649168   0.668642   2.538373
                   11         12         13         14         15
    11  H    0.000000
    12  C    2.103938   0.000000
    13  H    2.427032   1.070000   0.000000
    14  C    3.489068   1.540000   2.271265   0.000000
    15  H    4.359099   2.271265   2.606327   1.070000   0.000000
    16  C    3.967520   2.511867   3.463611   1.355200   2.103938
    17  H    5.037519   3.494278   4.363264   2.107479   2.427032
    18  H    3.556397   2.693941   3.754622   2.103938   3.050630
                   16         17         18
    16  C    0.000000
    17  H    1.070000   0.000000
    18  H    1.070000   1.852234   0.000000
 Stoichiometry    C8H10
 Framework group  CS[SG(C8H10)]
 Deg. of freedom    33
 Full point group                 CS      NOp   2
 Largest Abelian subgroup         CS      NOp   2
 Largest concise Abelian subgroup C1      NOp   1
                         Standard orientation:                         
 ---------------------------------------------------------------------
 Center     Atomic      Atomic             Coordinates (Angstroms)
 Number     Number       Type             X           Y           Z
 ---------------------------------------------------------------------
      1          6           0        2.839262   -0.063312    0.000000
      2          1           0        2.132840   -0.866971    0.000000
      3          1           0        3.888044   -0.275340    0.000000
      4          6           0        2.410208    1.222176    0.000000
      5          1           0        3.116630    2.025835    0.000000
      6          6           0        0.900745    1.527337    0.000000
      7          1           0        0.561985    2.542296    0.000000
      8          6           0        0.000000    0.514804    0.000000
      9          1           0        0.332724   -0.502150    0.000000
     10          6           0       -1.507623    0.828928    0.000000
     11          1           0       -1.840347    1.845882    0.000000
     12          6           0       -2.414368   -0.178236    0.000000
     13          1           0       -3.461872    0.040019    0.000000
     14          6           0       -1.935494   -1.641889    0.000000
     15          1           0       -2.651416   -2.437097    0.000000
     16          6           0       -0.610452   -1.926196    0.000000
     17          1           0       -0.277728   -2.943150    0.000000
     18          1           0        0.105470   -1.130988    0.000000
 ---------------------------------------------------------------------
 Rotational constants (GHZ):      4.0295014      1.2152012      0.9336383
 Standard basis: 6-31G(d) (6D, 7F)
 There are   108 symmetry adapted basis functions of A'  symmetry.
 There are    32 symmetry adapted basis functions of A"  symmetry.
 Integral buffers will be    131072 words long.
 Raffenetti 2 integral format.
 Two-electron integral symmetry is turned on.
   140 basis functions,   264 primitive gaussians,   140 cartesian basis functions
    29 alpha electrons       29 beta electrons
       nuclear repulsion energy       321.8223758262 Hartrees.
 NAtoms=   18 NActive=   18 NUniq=   18 SFac= 1.00D+00 NAtFMM=   60 NAOKFM=F Big=F
 One-electron integrals computed using PRISM.
 NBasis=   140 RedAO= T  NBF=   108    32
 NBsUse=   140 1.00D-06 NBFU=   108    32
 Harris functional with IExCor=  402 diagonalized for initial guess.
 ExpMin= 1.61D-01 ExpMax= 3.05D+03 ExpMxC= 4.57D+02 IAcc=1 IRadAn=         1 AccDes= 0.00D+00
 HarFok:  IExCor=  402 AccDes= 0.00D+00 IRadAn=         1 IDoV= 1
 ScaDFX=  1.000000  1.000000  1.000000  1.000000
 FoFCou: FMM=F IPFlag=           0 FMFlag=      100000 FMFlg1=           0
         NFxFlg=           0 DoJE=T BraDBF=F KetDBF=T FulRan=T
         Omega=  0.000000  0.000000  1.000000  0.000000  0.000000 ICntrl=     500 IOpCl=  0
         NMat0=    1 NMatS0=    1 NMatT0=    0 NMatD0=    1 NMtDS0=    0 NMtDT0=    0
         I1Cent=           4 NGrid=           0.
 Petite list used in FoFCou.
 Initial guess orbital symmetries:
       Occupied  (A') (A') (A') (A') (A') (A') (A') (A') (A') (A')
                 (A') (A') (A') (A') (A') (A') (A') (A') (A') (A')
                 (A') (A') (A') (A') (A") (A") (A') (A") (A")
       Virtual   (A") (A") (A") (A") (A') (A') (A') (A') (A') (A')
                 (A') (A') (A') (A') (A') (A') (A') (A') (A') (A')
                 (A') (A') (A") (A') (A") (A') (A') (A") (A') (A')
                 (A") (A') (A') (A") (A') (A") (A") (A") (A') (A')
                 (A') (A') (A') (A') (A') (A') (A') (A') (A') (A')
                 (A') (A') (A') (A') (A') (A') (A') (A') (A") (A")
                 (A') (A") (A") (A") (A') (A") (A') (A") (A') (A')
                 (A") (A") (A') (A') (A') (A') (A') (A') (A') (A")
                 (A') (A') (A") (A") (A') (A') (A') (A") (A') (A")
                 (A') (A") (A") (A') (A') (A') (A') (A') (A') (A')
                 (A') (A') (A') (A') (A') (A') (A') (A') (A') (A')
                 (A')
 The electronic state of the initial guess is 1-A'.
 Requested convergence on RMS density matrix=1.00D-08 within 128 cycles.
 Requested convergence on MAX density matrix=1.00D-06.
 Requested convergence on             energy=1.00D-06.
 No special actions if energy rises.
 Integral accuracy reduced to 1.0D-05 until final iterations.
 Initial convergence to 1.0D-05 achieved.  Increase integral accuracy.
 SCF Done:  E(RB3LYP) =  -310.607786666     A.U. after   14 cycles
             Convg  =    0.9214D-08             -V/T =  2.0085

 **********************************************************************

            Population analysis using the SCF density.

 **********************************************************************

 Orbital symmetries:
       Occupied  (A') (A') (A') (A') (A') (A') (A') (A') (A') (A')
                 (A') (A') (A') (A') (A') (A') (A') (A') (A') (A')
                 (A') (A') (A') (A') (A") (A") (A') (A") (A")
       Virtual   (A") (A") (A") (A') (A") (A') (A') (A') (A') (A')
                 (A') (A') (A') (A') (A') (A') (A') (A') (A') (A')
                 (A') (A') (A") (A") (A') (A') (A") (A') (A') (A")
                 (A') (A") (A') (A') (A") (A') (A") (A") (A') (A')
                 (A') (A') (A') (A') (A') (A') (A') (A') (A') (A')
                 (A') (A') (A') (A') (A') (A') (A') (A') (A") (A")
                 (A') (A") (A') (A") (A") (A') (A") (A') (A") (A')
                 (A") (A') (A") (A') (A') (A') (A') (A') (A') (A")
                 (A') (A') (A") (A") (A') (A') (A') (A") (A') (A")
                 (A') (A") (A") (A') (A') (A') (A') (A') (A') (A')
                 (A') (A') (A') (A') (A') (A') (A') (A') (A') (A')
                 (A')
 The electronic state is 1-A'.
 Alpha  occ. eigenvalues --  -10.20207 -10.19901 -10.19489 -10.19470 -10.19147
 Alpha  occ. eigenvalues --  -10.18700 -10.18034 -10.15941  -0.83810  -0.78823
 Alpha  occ. eigenvalues --   -0.73897  -0.73188  -0.66926  -0.58711  -0.57844
 Alpha  occ. eigenvalues --   -0.53056  -0.48616  -0.47317  -0.46079  -0.41782
 Alpha  occ. eigenvalues --   -0.40595  -0.39123  -0.36523  -0.34768  -0.33714
 Alpha  occ. eigenvalues --   -0.30189  -0.27015  -0.24750  -0.20530
 Alpha virt. eigenvalues --   -0.06025   0.00979   0.07496   0.09289   0.10060
 Alpha virt. eigenvalues --    0.11358   0.12797   0.14992   0.16319   0.17614
 Alpha virt. eigenvalues --    0.18619   0.19720   0.20046   0.25688   0.29426
 Alpha virt. eigenvalues --    0.33017   0.34219   0.36048   0.41205   0.43240
 Alpha virt. eigenvalues --    0.48457   0.50516   0.50920   0.54863   0.55107
 Alpha virt. eigenvalues --    0.56318   0.58048   0.58754   0.59772   0.61696
 Alpha virt. eigenvalues --    0.62487   0.63707   0.64820   0.66103   0.66731
 Alpha virt. eigenvalues --    0.66917   0.69891   0.72928   0.78854   0.84193
 Alpha virt. eigenvalues --    0.84943   0.86897   0.87661   0.88853   0.89930
 Alpha virt. eigenvalues --    0.92299   0.93288   0.93500   0.97302   0.98673
 Alpha virt. eigenvalues --    1.02584   1.04980   1.07299   1.09433   1.12437
 Alpha virt. eigenvalues --    1.15060   1.19728   1.27767   1.32230   1.34713
 Alpha virt. eigenvalues --    1.37568   1.42943   1.44326   1.46704   1.47808
 Alpha virt. eigenvalues --    1.49686   1.49952   1.54879   1.58800   1.61251
 Alpha virt. eigenvalues --    1.68641   1.71623   1.71686   1.76532   1.88416
 Alpha virt. eigenvalues --    1.94354   1.95880   1.98127   1.99396   2.01313
 Alpha virt. eigenvalues --    2.03315   2.10564   2.14248   2.18704   2.19018
 Alpha virt. eigenvalues --    2.21142   2.25813   2.30389   2.31639   2.32780
 Alpha virt. eigenvalues --    2.42909   2.47013   2.49090   2.55159   2.57327
 Alpha virt. eigenvalues --    2.59596   2.69369   2.73227   2.75356   2.84890
 Alpha virt. eigenvalues --    2.95597   3.06000   3.10550   4.05223   4.06924
 Alpha virt. eigenvalues --    4.12694   4.18176   4.22324   4.35684   4.44564
 Alpha virt. eigenvalues --    4.53992
          Condensed to atoms (all electrons):
              1          2          3          4          5          6
     1  C    5.048589   0.357870   0.367151   0.640451  -0.053901  -0.026935
     2  H    0.357870   0.566334  -0.038651  -0.031214   0.006014  -0.016623
     3  H    0.367151  -0.038651   0.554640  -0.026484  -0.006299   0.003530
     4  C    0.640451  -0.031214  -0.026484   4.832411   0.365799   0.394879
     5  H   -0.053901   0.006014  -0.006299   0.365799   0.587222  -0.037820
     6  C   -0.026935  -0.016623   0.003530   0.394879  -0.037820   4.974978
     7  H    0.005549  -0.000159  -0.000140  -0.049524  -0.002933   0.352288
     8  C   -0.034421  -0.004980   0.001125  -0.016608   0.004152   0.567644
     9  H    0.029803   0.010691  -0.001827  -0.027700   0.000429  -0.009043
    10  C    0.000196   0.000580  -0.000003   0.004959  -0.000095  -0.030238
    11  H   -0.000003  -0.000003   0.000000   0.000007   0.000002  -0.008317
    12  C    0.000002  -0.000060   0.000000  -0.000206   0.000001   0.003071
    13  H    0.000000  -0.000001   0.000000   0.000002   0.000000  -0.000118
    14  C    0.000102   0.000327  -0.000001  -0.000023   0.000000   0.001133
    15  H    0.000000   0.000001   0.000000   0.000000   0.000000   0.000003
    16  C   -0.001107   0.004461  -0.000072   0.000768  -0.000002   0.009087
    17  H   -0.000123  -0.000001   0.000004  -0.000005   0.000000  -0.000340
    18  H   -0.009743  -0.003104   0.000655   0.004659  -0.000086  -0.002166
              7          8          9         10         11         12
     1  C    0.005549  -0.034421   0.029803   0.000196  -0.000003   0.000002
     2  H   -0.000159  -0.004980   0.010691   0.000580  -0.000003  -0.000060
     3  H   -0.000140   0.001125  -0.001827  -0.000003   0.000000   0.000000
     4  C   -0.049524  -0.016608  -0.027700   0.004959   0.000007  -0.000206
     5  H   -0.002933   0.004152   0.000429  -0.000095   0.000002   0.000001
     6  C    0.352288   0.567644  -0.009043  -0.030238  -0.008317   0.003071
     7  H    0.614927  -0.052676   0.009625  -0.010748   0.005635   0.000497
     8  C   -0.052676   5.083144   0.372331   0.403008  -0.041309  -0.007373
     9  H    0.009625   0.372331   1.055276  -0.106901   0.007269   0.004958
    10  C   -0.010748   0.403008  -0.106901   4.980125   0.357560   0.605371
    11  H    0.005635  -0.041309   0.007269   0.357560   0.598031  -0.046063
    12  C    0.000497  -0.007373   0.004958   0.605371  -0.046063   4.895410
    13  H   -0.000011   0.005261  -0.000501  -0.047057  -0.007191   0.359243
    14  C   -0.000021  -0.019397   0.015310  -0.033593   0.004475   0.428527
    15  H   -0.000001  -0.001032  -0.001756   0.005073  -0.000201  -0.044142
    16  C   -0.000273  -0.081240  -0.166435  -0.035141  -0.000621  -0.022779
    17  H    0.000004   0.004857   0.008055   0.000932   0.000021   0.003885
    18  H   -0.001179  -0.160778  -0.237215   0.034207  -0.002072  -0.019447
             13         14         15         16         17         18
     1  C    0.000000   0.000102   0.000000  -0.001107  -0.000123  -0.009743
     2  H   -0.000001   0.000327   0.000001   0.004461  -0.000001  -0.003104
     3  H    0.000000  -0.000001   0.000000  -0.000072   0.000004   0.000655
     4  C    0.000002  -0.000023   0.000000   0.000768  -0.000005   0.004659
     5  H    0.000000   0.000000   0.000000  -0.000002   0.000000  -0.000086
     6  C   -0.000118   0.001133   0.000003   0.009087  -0.000340  -0.002166
     7  H   -0.000011  -0.000021  -0.000001  -0.000273   0.000004  -0.001179
     8  C    0.005261  -0.019397  -0.001032  -0.081240   0.004857  -0.160778
     9  H   -0.000501   0.015310  -0.001756  -0.166435   0.008055  -0.237215
    10  C   -0.047057  -0.033593   0.005073  -0.035141   0.000932   0.034207
    11  H   -0.007191   0.004475  -0.000201  -0.000621   0.000021  -0.002072
    12  C    0.359243   0.428527  -0.044142  -0.022779   0.003885  -0.019447
    13  H    0.601332  -0.043645  -0.003281   0.005963  -0.000137   0.000299
    14  C   -0.043645   4.801693   0.363172   0.649905  -0.026894  -0.067728
    15  H   -0.003281   0.363172   0.601704  -0.052446  -0.009319   0.010386
    16  C    0.005963   0.649905  -0.052446   5.235020   0.336192   0.451183
    17  H   -0.000137  -0.026894  -0.009319   0.336192   0.598511  -0.040807
    18  H    0.000299  -0.067728   0.010386   0.451183  -0.040807   0.854430
 Mulliken atomic charges:
              1
     1  C   -0.323478
     2  H    0.148518
     3  H    0.146371
     4  C   -0.092171
     5  H    0.137516
     6  C   -0.175013
     7  H    0.129141
     8  C   -0.021708
     9  H    0.037631
    10  C   -0.128234
    11  H    0.132779
    12  C   -0.160894
    13  H    0.129842
    14  C   -0.073342
    15  H    0.131838
    16  C   -0.332464
    17  H    0.125164
    18  H    0.188506
 Sum of Mulliken atomic charges =   0.00000
 Mulliken charges with hydrogens summed into heavy atoms:
              1
     1  C   -0.028589
     4  C    0.045345
     6  C   -0.045872
     8  C    0.015923
    10  C    0.004545
    12  C   -0.031053
    14  C    0.058496
    16  C   -0.018794
 Sum of Mulliken charges with hydrogens summed into heavy atoms =   0.00000
 Electronic spatial extent (au):  <R**2>=           1218.9694
 Charge=              0.0000 electrons
 Dipole moment (field-independent basis, Debye):
    X=              0.3383    Y=              0.4602    Z=              0.0000  Tot=              0.5712
 Quadrupole moment (field-independent basis, Debye-Ang):
   XX=            -42.9177   YY=            -44.5212   ZZ=            -53.6563
   XY=              0.3184   XZ=              0.0000   YZ=              0.0000
 Traceless Quadrupole moment (field-independent basis, Debye-Ang):
   XX=              4.1140   YY=              2.5105   ZZ=             -6.6245
   XY=              0.3184   XZ=              0.0000   YZ=              0.0000
 Octapole moment (field-independent basis, Debye-Ang**2):
  XXX=              1.0327  YYY=              5.8983  ZZZ=              0.0000  XYY=              0.7660
  XXY=              1.0008  XXZ=              0.0000  XZZ=              0.1959  YZZ=              0.3088
  YYZ=              0.0000  XYZ=              0.0000
 Hexadecapole moment (field-independent basis, Debye-Ang**3):
 XXXX=           -989.1309 YYYY=           -493.7307 ZZZZ=            -55.9060 XXXY=           -116.9751
 XXXZ=              0.0000 YYYX=           -121.3854 YYYZ=              0.0000 ZZZX=              0.0000
 ZZZY=              0.0000 XXYY=           -246.1705 XXZZ=           -213.6053 YYZZ=           -106.5238
 XXYZ=              0.0000 YYXZ=              0.0000 ZZXY=            -50.0710
 N-N= 3.218223758262D+02 E-N=-1.362076110832D+03  KE= 3.079970417494D+02
 Symmetry A'   KE= 2.995750904822D+02
 Symmetry A"   KE= 8.421951267207D+00
 Calling FoFJK, ICntrl=      2127 FMM=F ISym2X=1 I1Cent= 0 IOpClX= 0 NMat=1 NMatS=1 NMatT=0.
 ***** Axes restored to original set *****
 -------------------------------------------------------------------
 Center     Atomic                   Forces (Hartrees/Bohr)
 Number     Number              X              Y              Z
 -------------------------------------------------------------------
      1        6          -0.000527388    0.025630827    0.023964119
      2        1          -0.001063176   -0.009287986   -0.007631794
      3        1          -0.008036980   -0.008610976   -0.001160201
      4        6           0.036528095   -0.000153455   -0.030784090
      5        1          -0.004968814    0.005791936    0.009483641
      6        6          -0.027684517   -0.032142537   -0.006273141
      7        1          -0.000750732    0.010433070    0.010204331
      8        6           0.019369020    0.096462887    0.072276479
      9        1          -0.071702003    0.133988225    0.183112991
     10        6          -0.030401466   -0.043544324   -0.014457452
     11        1          -0.002280322    0.008983578    0.010157281
     12        6          -0.023949766   -0.035055875   -0.012079811
     13        1           0.010247040    0.004267019   -0.004680307
     14        6          -0.015333768    0.027732997    0.038314313
     15        1           0.009712398   -0.000533435   -0.008637229
     16        6           0.040530597   -0.032230927   -0.063579625
     17        1          -0.000648382   -0.011387818   -0.009906802
     18        1           0.070960164   -0.140343206   -0.188322702
 -------------------------------------------------------------------
 Cartesian Forces:  Max     0.188322702 RMS     0.053164838

 GradGradGradGradGradGradGradGradGradGradGradGradGradGradGradGradGradGrad
 Berny optimization.
 Internal  Forces:  Max     0.302488608 RMS     0.039266412
 Search for a local minimum.
 Step number   1 out of a maximum of   87
 All quantities printed in internal units (Hartrees-Bohrs-Radians)
 Mixed Optimization -- RFO/linear search
 Second derivative matrix not updated -- first step.
 ITU=  0
     Eigenvalues ---    0.00237   0.00374   0.00378   0.00952   0.01073
     Eigenvalues ---    0.01339   0.01459   0.01460   0.01463   0.01670
     Eigenvalues ---    0.02016   0.02203   0.02681   0.02681   0.02681
     Eigenvalues ---    0.16000   0.16000   0.16000   0.16000   0.16000
     Eigenvalues ---    0.16000   0.16000   0.16000   0.16000   0.16137
     Eigenvalues ---    0.18691   0.21689   0.22000   0.22000   0.22000
     Eigenvalues ---    0.27788   0.28272   0.28519   0.35984   0.36732
     Eigenvalues ---    0.37230   0.37230   0.37230   0.37230   0.37230
     Eigenvalues ---    0.37230   0.37230   0.37230   0.48972   0.51792
     Eigenvalues ---    0.53391   0.53930   0.53930
 RFO step:  Lambda=-1.90890001D-01 EMin= 2.36824133D-03
 Linear search not attempted -- first point.
 Maximum step size (   0.300) exceeded in Quadratic search.
    -- Step size scaled by   0.530
 Iteration  1 RMS(Cart)=  0.11505230 RMS(Int)=  0.00470109
 Iteration  2 RMS(Cart)=  0.00865327 RMS(Int)=  0.00015193
 Iteration  3 RMS(Cart)=  0.00002824 RMS(Int)=  0.00014951
 Iteration  4 RMS(Cart)=  0.00000001 RMS(Int)=  0.00014951
 ClnCor:  largest displacement from symmetrization is 1.87D-08 for atom     2.
 Variable       Old X    -DE/DX   Delta X   Delta X   Delta X     New X
                                 (Linear)    (Quad)   (Total)
    R1        2.02201   0.00782   0.00000   0.00736   0.00736   2.02937
    R2        2.02201   0.01088   0.00000   0.01024   0.01024   2.03225
    R3        2.56096  -0.01217   0.00000  -0.00884  -0.00884   2.55212
    R4        2.02201   0.01175   0.00000   0.01106   0.01106   2.03307
    R5        2.91018  -0.02638   0.00000  -0.02937  -0.02937   2.88081
    R6        2.02201   0.01377   0.00000   0.01296   0.01296   2.03496
    R7        2.56096  -0.00019   0.00000  -0.00014  -0.00014   2.56082
    R8        2.02201   0.05474   0.00000   0.05666   0.05640   2.07840
    R9        2.91018  -0.04510   0.00000  -0.05093  -0.05099   2.85919
   R10        1.26355   0.30249   0.00000   0.23513   0.23488   1.49843
   R11        2.02201   0.01226   0.00000   0.01154   0.01154   2.03355
   R12        2.56096   0.01874   0.00000   0.00917   0.00936   2.57032
   R13        2.02201   0.01168   0.00000   0.01099   0.01099   2.03300
   R14        2.91018  -0.01738   0.00000  -0.02545  -0.02518   2.88500
   R15        2.02201   0.01244   0.00000   0.01171   0.01171   2.03371
   R16        2.56096  -0.01942   0.00000  -0.01366  -0.01356   2.54740
   R17        2.02201   0.01473   0.00000   0.01386   0.01386   2.03587
   R18        2.02201   0.05227   0.00000   0.05493   0.05475   2.07675
    A1        2.09241  -0.00935   0.00000  -0.01413  -0.01413   2.07828
    A2        2.09836   0.00925   0.00000   0.01397   0.01397   2.11233
    A3        2.09241   0.00010   0.00000   0.00016   0.00016   2.09257
    A4        2.09836  -0.01397   0.00000  -0.01732  -0.01732   2.08104
    A5        2.09241   0.03430   0.00000   0.04424   0.04424   2.13666
    A6        2.09241  -0.02033   0.00000  -0.02692  -0.02692   2.06549
    A7        2.09241  -0.02086   0.00000  -0.02799  -0.02799   2.06442
    A8        2.09836   0.03182   0.00000   0.04105   0.04105   2.13940
    A9        2.09241  -0.01097   0.00000  -0.01305  -0.01305   2.07936
   A10        2.09836   0.02953   0.00000   0.04264   0.04279   2.14114
   A11        2.09241   0.01455   0.00000   0.01592   0.01607   2.10848
   A12        2.09241  -0.04408   0.00000  -0.05857  -0.05886   2.03356
   A13        2.47861  -0.00306   0.00000   0.01725   0.01669   2.49530
   A14        2.09241  -0.02376   0.00000  -0.02651  -0.02662   2.06580
   A15        2.09836   0.03489   0.00000   0.03395   0.03417   2.13253
   A16        2.09241  -0.01113   0.00000  -0.00744  -0.00755   2.08486
   A17        2.09836  -0.02355   0.00000  -0.02110  -0.02138   2.07697
   A18        2.09241   0.05308   0.00000   0.05124   0.05179   2.14421
   A19        2.09241  -0.02953   0.00000  -0.03013  -0.03041   2.06200
   A20        2.09241  -0.01401   0.00000  -0.01518  -0.01540   2.07701
   A21        2.09836   0.02032   0.00000   0.01871   0.01917   2.11752
   A22        2.09241  -0.00631   0.00000  -0.00354  -0.00376   2.08865
   A23        2.09836   0.01774   0.00000   0.02255   0.02254   2.12090
   A24        2.09241  -0.04228   0.00000  -0.05538  -0.05536   2.03705
   A25        2.09241   0.02454   0.00000   0.03282   0.03282   2.12523
   A26        2.75540  -0.01887   0.00000  -0.00721  -0.00760   2.74780
    D1        3.14159   0.00000   0.00000   0.00000   0.00000   3.14159
    D2        0.00000   0.00000   0.00000   0.00000   0.00000   0.00000
    D3        0.00000   0.00000   0.00000   0.00000   0.00000   0.00000
    D4        3.14159   0.00000   0.00000   0.00000   0.00000   3.14159
    D5        3.14159   0.00000   0.00000   0.00000   0.00000   3.14159
    D6        0.00000   0.00000   0.00000   0.00000   0.00000   0.00000
    D7        0.00000   0.00000   0.00000   0.00000   0.00000   0.00000
    D8        3.14159   0.00000   0.00000   0.00000   0.00000  -3.14159
    D9        0.00000   0.00000   0.00000   0.00000   0.00000   0.00000
   D10        3.14159   0.00000   0.00000   0.00000   0.00000   3.14159
   D11        3.14159   0.00000   0.00000   0.00000   0.00000   3.14159
   D12        0.00000   0.00000   0.00000   0.00000   0.00000   0.00000
   D13        3.14159   0.00000   0.00000   0.00000   0.00000   3.14159
   D14        0.00000   0.00000   0.00000   0.00000   0.00000   0.00000
   D15        0.00000   0.00000   0.00000   0.00000   0.00000   0.00000
   D16        3.14159   0.00000   0.00000   0.00000   0.00000   3.14159
   D17        3.14159   0.00000   0.00000   0.00000   0.00000   3.14159
   D18        0.00000   0.00000   0.00000   0.00000   0.00000   0.00000
   D19        0.00000   0.00000   0.00000   0.00000   0.00000   0.00000
   D20       -3.14159   0.00000   0.00000   0.00000   0.00000   3.14159
   D21        0.00000   0.00000   0.00000   0.00000   0.00000   0.00000
   D22        0.00000   0.00000   0.00000   0.00000   0.00000   0.00000
   D23       -3.14159   0.00000   0.00000   0.00000   0.00000   3.14159
   D24        3.14159   0.00000   0.00000   0.00000   0.00000   3.14159
   D25        0.00000   0.00000   0.00000   0.00000   0.00000   0.00000
   D26        0.00000   0.00000   0.00000   0.00000   0.00000   0.00000
   D27        3.14159   0.00000   0.00000   0.00000   0.00000   3.14159
   D28        3.14159   0.00000   0.00000   0.00000   0.00000   3.14159
   D29        0.00000   0.00000   0.00000   0.00000   0.00000   0.00000
   D30        0.00000   0.00000   0.00000   0.00000   0.00000   0.00000
   D31        3.14159   0.00000   0.00000   0.00000   0.00000   3.14159
   D32        0.00000   0.00000   0.00000   0.00000   0.00000   0.00000
   D33        3.14159   0.00000   0.00000   0.00000   0.00000   3.14159
         Item               Value     Threshold  Converged?
 Maximum Force            0.302489     0.000450     NO 
 RMS     Force            0.039266     0.000300     NO 
 Maximum Displacement     0.360044     0.001800     NO 
 RMS     Displacement     0.122485     0.001200     NO 
 Predicted change in Energy=-8.297113D-02
 GradGradGradGradGradGradGradGradGradGradGradGradGradGradGradGradGradGrad

                          Input orientation:                          
 ---------------------------------------------------------------------
 Center     Atomic      Atomic             Coordinates (Angstroms)
 Number     Number       Type             X           Y           Z
 ---------------------------------------------------------------------
      1          6           0       -4.849810   -1.538626   -2.517472
      2          1           0       -4.284069   -1.923415   -3.345194
      3          1           0       -5.752859   -2.042549   -2.222364
      4          6           0       -4.443619   -0.438123   -1.848280
      5          1           0       -5.032594   -0.077574   -1.023312
      6          6           0       -3.173872    0.320568   -2.217205
      7          1           0       -2.912676    1.190182   -1.638267
      8          6           0       -2.368884   -0.057656   -3.239607
      9          1           0       -2.579781   -0.935267   -3.868080
     10          6           0       -1.117349    0.725347   -3.570943
     11          1           0       -0.882366    1.589823   -2.974731
     12          6           0       -0.289698    0.370972   -4.590470
     13          1           0        0.586970    0.964705   -4.781029
     14          6           0       -0.548042   -0.839319   -5.484444
     15          1           0        0.148293   -1.063045   -6.273912
     16          6           0       -1.626586   -1.627301   -5.302798
     17          1           0       -1.811926   -2.482101   -5.931776
     18          1           0       -2.305414   -1.354301   -4.482797
 ---------------------------------------------------------------------
                    Distance matrix (angstroms):
                    1          2          3          4          5
     1  C    0.000000
     2  H    1.073894   0.000000
     3  H    1.075418   1.852643   0.000000
     4  C    1.350524   2.114781   2.104336   0.000000
     5  H    2.097760   3.059175   2.411977   1.075853   0.000000
     6  C    2.521018   2.745971   3.497931   1.524459   2.244715
     7  H    3.460041   3.806416   4.342621   2.244831   2.545472
     8  C    2.978211   2.675843   4.052884   2.526870   3.465214
     9  H    2.709467   2.038245   3.742042   2.792962   3.852874
    10  C    4.490728   4.134612   5.564878   3.922410   4.739647
    11  H    5.073153   4.904249   6.122244   4.250173   4.879819
    12  C    5.360830   4.771784   6.424884   5.042747   5.951544
    13  H    6.399135   5.842078   7.468854   5.989638   6.840050
    14  C    5.272301   4.439544   6.259317   5.343984   6.371276
    15  H    6.270411   5.381771   7.224823   6.407995   7.441878
    16  C    4.260877   3.313926   5.166007   4.613405   5.684764
    17  H    4.666514   3.621329   5.429908   5.270540   6.344089
    18  H    3.220315   2.352256   4.179488   3.514539   4.586456
                    6          7          8          9         10
     6  C    0.000000
     7  H    1.076857   0.000000
     8  C    1.355126   2.101690   0.000000
     9  H    2.157651   3.098455   1.099844   0.000000
    10  C    2.495144   2.678528   1.513017   2.232630   0.000000
    11  H    2.726876   2.463332   2.234744   3.171020   1.076106
    12  C    3.735424   4.033190   2.516261   2.733604   1.360155
    13  H    4.596960   4.709068   3.486872   3.804167   2.103878
    14  C    4.349158   4.950096   2.994287   2.598038   2.536489
    15  H    5.422918   5.994645   4.068660   3.639608   3.479402
    16  C    3.963480   4.798022   2.696580   1.856315   2.965399
    17  H    4.848494   5.756000   3.665502   2.690936   4.042733
    18  H    2.948273   3.864519   1.797453   0.792933   2.562793
                   11         12         13         14         15
    11  H    0.000000
    12  C    2.108901   0.000000
    13  H    2.410899   1.075815   0.000000
    14  C    3.508726   1.526675   2.244448   0.000000
    15  H    4.357128   2.254378   2.555955   1.076195   0.000000
    16  C    4.040252   2.507544   3.448270   1.348024   2.100392
    17  H    5.117495   3.500901   4.354238   2.120434   2.444020
    18  H    3.600998   2.655423   3.719222   2.087309   3.051819
                   16         17         18
    16  C    0.000000
    17  H    1.077334   0.000000
    18  H    1.098971   1.901316   0.000000
 Stoichiometry    C8H10
 Framework group  CS[SG(C8H10)]
 Deg. of freedom    33
 Full point group                 CS      NOp   2
 Largest Abelian subgroup         CS      NOp   2
 Largest concise Abelian subgroup C1      NOp   1
                         Standard orientation:                         
 ---------------------------------------------------------------------
 Center     Atomic      Atomic             Coordinates (Angstroms)
 Number     Number       Type             X           Y           Z
 ---------------------------------------------------------------------
      1          6           0        2.955560    0.153547    0.000000
      2          1           0        2.360368   -0.740318    0.000000
      3          1           0        4.027543    0.067649    0.000000
      4          6           0        2.378100    1.374389    0.000000
      5          1           0        3.002103    2.250790    0.000000
      6          6           0        0.865354    1.563004    0.000000
      7          1           0        0.476366    2.567149    0.000000
      8          6           0        0.000000    0.520158    0.000000
      9          1           0        0.333212   -0.527996    0.000000
     10          6           0       -1.494887    0.753680    0.000000
     11          1           0       -1.853792    1.768171    0.000000
     12          6           0       -2.388365   -0.271853    0.000000
     13          1           0       -3.440430   -0.047047    0.000000
     14          6           0       -1.965442   -1.738779    0.000000
     15          1           0       -2.725275   -2.500914    0.000000
     16          6           0       -0.664838   -2.093180    0.000000
     17          1           0       -0.362897   -3.127336    0.000000
     18          1           0        0.069905   -1.275935    0.000000
 ---------------------------------------------------------------------
 Rotational constants (GHZ):      4.0189674      1.1412937      0.8888740
 Standard basis: 6-31G(d) (6D, 7F)
 There are   108 symmetry adapted basis functions of A'  symmetry.
 There are    32 symmetry adapted basis functions of A"  symmetry.
 Integral buffers will be    131072 words long.
 Raffenetti 2 integral format.
 Two-electron integral symmetry is turned on.
   140 basis functions,   264 primitive gaussians,   140 cartesian basis functions
    29 alpha electrons       29 beta electrons
       nuclear repulsion energy       317.8938823795 Hartrees.
 NAtoms=   18 NActive=   18 NUniq=   18 SFac= 1.00D+00 NAtFMM=   60 NAOKFM=F Big=F
 One-electron integrals computed using PRISM.
 NBasis=   140 RedAO= T  NBF=   108    32
 NBsUse=   140 1.00D-06 NBFU=   108    32
 Initial guess read from the read-write file.
 B after Tr=     0.000000    0.000000    0.000000
         Rot=    1.000000    0.000000    0.000000    0.000000 Ang=   0.00 deg.
 Initial guess orbital symmetries:
       Occupied  (A') (A') (A') (A') (A') (A') (A') (A') (A') (A')
                 (A') (A') (A') (A') (A') (A') (A') (A') (A') (A')
                 (A') (A') (A') (A') (A") (A") (A') (A") (A")
       Virtual   (A") (A") (A") (A') (A") (A') (A') (A') (A') (A')
                 (A') (A') (A') (A') (A') (A') (A') (A') (A') (A')
                 (A') (A') (A") (A") (A') (A') (A") (A') (A') (A")
                 (A') (A") (A') (A') (A") (A') (A") (A") (A') (A')
                 (A') (A') (A') (A') (A') (A') (A') (A') (A') (A')
                 (A') (A') (A') (A') (A') (A') (A') (A') (A") (A")
                 (A') (A") (A') (A") (A") (A') (A") (A') (A") (A')
                 (A") (A') (A") (A') (A') (A') (A') (A') (A') (A")
                 (A') (A') (A") (A") (A') (A') (A') (A") (A') (A")
                 (A') (A") (A") (A') (A') (A') (A') (A') (A') (A')
                 (A') (A') (A') (A') (A') (A') (A') (A') (A') (A')
                 (A')
 Harris functional with IExCor=  402 diagonalized for initial guess.
 ExpMin= 1.61D-01 ExpMax= 3.05D+03 ExpMxC= 4.57D+02 IAcc=1 IRadAn=         1 AccDes= 0.00D+00
 HarFok:  IExCor=  402 AccDes= 0.00D+00 IRadAn=         1 IDoV= 1
 ScaDFX=  1.000000  1.000000  1.000000  1.000000
 FoFCou: FMM=F IPFlag=           0 FMFlag=      100000 FMFlg1=           0
         NFxFlg=           0 DoJE=T BraDBF=F KetDBF=T FulRan=T
         Omega=  0.000000  0.000000  1.000000  0.000000  0.000000 ICntrl=     500 IOpCl=  0
         NMat0=    1 NMatS0=    1 NMatT0=    0 NMatD0=    1 NMtDS0=    0 NMtDT0=    0
         I1Cent=           4 NGrid=           0.
 Petite list used in FoFCou.
 Requested convergence on RMS density matrix=1.00D-08 within 128 cycles.
 Requested convergence on MAX density matrix=1.00D-06.
 Requested convergence on             energy=1.00D-06.
 No special actions if energy rises.
 Integral accuracy reduced to 1.0D-05 until final iterations.
 Initial convergence to 1.0D-05 achieved.  Increase integral accuracy.
 SCF Done:  E(RB3LYP) =  -310.684427292     A.U. after   13 cycles
             Convg  =    0.6422D-08             -V/T =  2.0095
 Calling FoFJK, ICntrl=      2127 FMM=F ISym2X=1 I1Cent= 0 IOpClX= 0 NMat=1 NMatS=1 NMatT=0.
 ***** Axes restored to original set *****
 -------------------------------------------------------------------
 Center     Atomic                   Forces (Hartrees/Bohr)
 Number     Number              X              Y              Z
 -------------------------------------------------------------------
      1        6           0.001193193    0.018677164    0.016139277
      2        1           0.000362739   -0.006486057   -0.006256627
      3        1          -0.005408490   -0.005809928   -0.000794676
      4        6           0.028989880    0.001751688   -0.022711942
      5        1          -0.002476613    0.004879166    0.006555285
      6        6          -0.025271100   -0.026770032   -0.003367339
      7        1          -0.000337988    0.006593523    0.006334486
      8        6           0.016795527    0.053068968    0.034612287
      9        1          -0.042834479    0.081853952    0.111051945
     10        6          -0.022181781   -0.032860361   -0.011548118
     11        1          -0.000933088    0.006107057    0.006387278
     12        6          -0.016720512   -0.027005767   -0.010756728
     13        1           0.006864498    0.003021634   -0.002985610
     14        6          -0.009692076    0.022574984    0.028847955
     15        1           0.007669212    0.001498662   -0.005058330
     16        6           0.018384961   -0.011139183   -0.025645618
     17        1          -0.001054036   -0.005639856   -0.004291532
     18        1           0.046650153   -0.084315615   -0.116511993
 -------------------------------------------------------------------
 Cartesian Forces:  Max     0.116511993 RMS     0.032583209

 GradGradGradGradGradGradGradGradGradGradGradGradGradGradGradGradGradGrad
 Berny optimization.
 Using GEDIIS/GDIIS optimizer.
 Internal  Forces:  Max     0.170092733 RMS     0.022046429
 Search for a local minimum.
 Step number   2 out of a maximum of   87
 All quantities printed in internal units (Hartrees-Bohrs-Radians)
 Mixed Optimization -- RFO/linear search
 Update second derivatives using D2CorX and points    1    2
 DE= -7.66D-02 DEPred=-8.30D-02 R= 9.24D-01
 SS=  1.41D+00  RLast= 3.00D-01 DXNew= 5.0454D-01 8.9997D-01
 Trust test= 9.24D-01 RLast= 3.00D-01 DXMaxT set to 5.05D-01
 ITU=  1  0
 Use linear search instead of GDIIS.
 Linear search step of   0.600 exceeds DXMaxT=   0.505 but not scaled.
 Quartic linear search produced a step of  2.00000.
 Iteration  1 RMS(Cart)=  0.19538519 RMS(Int)=  0.03144925
 Iteration  2 RMS(Cart)=  0.04675521 RMS(Int)=  0.00709541
 Iteration  3 RMS(Cart)=  0.01179279 RMS(Int)=  0.00096034
 Iteration  4 RMS(Cart)=  0.00004421 RMS(Int)=  0.00095968
 Iteration  5 RMS(Cart)=  0.00000005 RMS(Int)=  0.00095968
 ClnCor:  largest displacement from symmetrization is 3.45D-08 for atom    15.
 Variable       Old X    -DE/DX   Delta X   Delta X   Delta X     New X
                                 (Linear)    (Quad)   (Total)
    R1        2.02937   0.00735   0.01472   0.00000   0.01472   2.04408
    R2        2.03225   0.00705   0.02048   0.00000   0.02048   2.05273
    R3        2.55212  -0.00852  -0.01767   0.00000  -0.01767   2.53445
    R4        2.03307   0.00801   0.02212   0.00000   0.02212   2.05519
    R5        2.88081  -0.02704  -0.05874   0.00000  -0.05874   2.82207
    R6        2.03496   0.00864   0.02591   0.00000   0.02591   2.06088
    R7        2.56082  -0.00337  -0.00028   0.00000  -0.00028   2.56054
    R8        2.07840   0.02062   0.11279   0.00000   0.11109   2.18950
    R9        2.85919  -0.03334  -0.10198   0.00000  -0.10208   2.75711
   R10        1.49843   0.17009   0.46975   0.00000   0.46807   1.96650
   R11        2.03355   0.00825   0.02308   0.00000   0.02308   2.05662
   R12        2.57032   0.00549   0.01873   0.00000   0.02010   2.59042
   R13        2.03300   0.00779   0.02198   0.00000   0.02198   2.05497
   R14        2.88500  -0.02134  -0.05036   0.00000  -0.04862   2.83637
   R15        2.03371   0.00836   0.02341   0.00000   0.02341   2.05713
   R16        2.54740  -0.00847  -0.02712   0.00000  -0.02646   2.52094
   R17        2.03587   0.00716   0.02772   0.00000   0.02772   2.06358
   R18        2.07675   0.01694   0.10949   0.00000   0.10818   2.18493
    A1        2.07828  -0.00609  -0.02826   0.00000  -0.02826   2.05002
    A2        2.11233   0.00456   0.02795   0.00000   0.02795   2.14028
    A3        2.09257   0.00154   0.00031   0.00000   0.00031   2.09289
    A4        2.08104  -0.00588  -0.03464   0.00000  -0.03464   2.04640
    A5        2.13666   0.01770   0.08848   0.00000   0.08848   2.22514
    A6        2.06549  -0.01183  -0.05385   0.00000  -0.05385   2.01164
    A7        2.06442  -0.01115  -0.05599   0.00000  -0.05599   2.00844
    A8        2.13940   0.01621   0.08209   0.00000   0.08209   2.22150
    A9        2.07936  -0.00506  -0.02611   0.00000  -0.02611   2.05325
   A10        2.14114   0.01148   0.08557   0.00000   0.08642   2.22757
   A11        2.10848   0.01110   0.03214   0.00000   0.03299   2.14147
   A12        2.03356  -0.02259  -0.11771   0.00000  -0.11941   1.91414
   A13        2.49530  -0.00142   0.03338   0.00000   0.02971   2.52501
   A14        2.06580  -0.01356  -0.05324   0.00000  -0.05402   2.01178
   A15        2.13253   0.02034   0.06834   0.00000   0.06990   2.20243
   A16        2.08486  -0.00678  -0.01510   0.00000  -0.01588   2.06898
   A17        2.07697  -0.01209  -0.04276   0.00000  -0.04451   2.03246
   A18        2.14421   0.02846   0.10358   0.00000   0.10708   2.25129
   A19        2.06200  -0.01637  -0.06082   0.00000  -0.06257   1.99944
   A20        2.07701  -0.01025  -0.03080   0.00000  -0.03221   2.04480
   A21        2.11752   0.01216   0.03833   0.00000   0.04114   2.15866
   A22        2.08865  -0.00190  -0.00753   0.00000  -0.00893   2.07972
   A23        2.12090   0.01082   0.04509   0.00000   0.04507   2.16597
   A24        2.03705  -0.02210  -0.11072   0.00000  -0.11068   1.92638
   A25        2.12523   0.01128   0.06563   0.00000   0.06561   2.19084
   A26        2.74780  -0.01484  -0.01520   0.00000  -0.01775   2.73005
    D1        3.14159   0.00000   0.00000   0.00000   0.00000   3.14159
    D2        0.00000   0.00000   0.00000   0.00000   0.00000   0.00000
    D3        0.00000   0.00000   0.00000   0.00000   0.00000   0.00000
    D4        3.14159   0.00000   0.00000   0.00000   0.00000   3.14159
    D5        3.14159   0.00000   0.00000   0.00000   0.00000  -3.14159
    D6        0.00000   0.00000   0.00000   0.00000   0.00000   0.00000
    D7        0.00000   0.00000   0.00000   0.00000   0.00000   0.00000
    D8        3.14159   0.00000   0.00000   0.00000   0.00000   3.14159
    D9        0.00000   0.00000   0.00000   0.00000   0.00000   0.00000
   D10        3.14159   0.00000   0.00000   0.00000   0.00000   3.14159
   D11        3.14159   0.00000   0.00000   0.00000   0.00000   3.14159
   D12        0.00000   0.00000   0.00000   0.00000   0.00000   0.00000
   D13        3.14159   0.00000   0.00000   0.00000   0.00000   3.14159
   D14        0.00000   0.00000   0.00000   0.00000   0.00000   0.00000
   D15        0.00000   0.00000   0.00000   0.00000   0.00000   0.00000
   D16        3.14159   0.00000   0.00000   0.00000   0.00000   3.14159
   D17        3.14159   0.00000   0.00000   0.00000   0.00000  -3.14159
   D18        0.00000   0.00000   0.00000   0.00000   0.00000   0.00000
   D19        0.00000   0.00000   0.00000   0.00000   0.00000   0.00000
   D20        3.14159   0.00000   0.00000   0.00000   0.00000   3.14159
   D21        0.00000   0.00000   0.00000   0.00000   0.00000   0.00000
   D22        0.00000   0.00000   0.00000   0.00000   0.00000   0.00000
   D23        3.14159   0.00000   0.00000   0.00000   0.00000  -3.14159
   D24        3.14159   0.00000   0.00000   0.00000   0.00000   3.14159
   D25        0.00000   0.00000   0.00000   0.00000   0.00000   0.00000
   D26        0.00000   0.00000   0.00000   0.00000   0.00000   0.00000
   D27        3.14159   0.00000   0.00000   0.00000   0.00000   3.14159
   D28       -3.14159   0.00000   0.00000   0.00000   0.00000   3.14159
   D29        0.00000   0.00000   0.00000   0.00000   0.00000   0.00000
   D30        0.00000   0.00000   0.00000   0.00000   0.00000   0.00000
   D31        3.14159   0.00000   0.00000   0.00000   0.00000   3.14159
   D32        0.00000   0.00000   0.00000   0.00000   0.00000   0.00000
   D33        3.14159   0.00000   0.00000   0.00000   0.00000   3.14159
         Item               Value     Threshold  Converged?
 Maximum Force            0.170093     0.000450     NO 
 RMS     Force            0.022046     0.000300     NO 
 Maximum Displacement     0.726835     0.001800     NO 
 RMS     Displacement     0.247179     0.001200     NO 
 Predicted change in Energy=-2.201548D-02
 GradGradGradGradGradGradGradGradGradGradGradGradGradGradGradGradGradGrad

                          Input orientation:                          
 ---------------------------------------------------------------------
 Center     Atomic      Atomic             Coordinates (Angstroms)
 Number     Number       Type             X           Y           Z
 ---------------------------------------------------------------------
      1          6           0       -5.060390   -1.477688   -2.284894
      2          1           0       -4.639186   -2.010211   -3.126942
      3          1           0       -5.984391   -1.860840   -1.861376
      4          6           0       -4.487761   -0.383736   -1.761338
      5          1           0       -4.986485    0.082720   -0.914889
      6          6           0       -3.227918    0.283772   -2.205635
      7          1           0       -2.945694    1.167129   -1.631725
      8          6           0       -2.417968   -0.088009   -3.226285
      9          1           0       -2.550434   -0.989267   -3.942255
     10          6           0       -1.203779    0.641952   -3.574971
     11          1           0       -0.990521    1.511349   -2.956016
     12          6           0       -0.335362    0.330883   -4.588954
     13          1           0        0.524185    0.986157   -4.708671
     14          6           0       -0.399350   -0.800321   -5.573392
     15          1           0        0.402327   -0.866693   -6.306826
     16          6           0       -1.373973   -1.711033   -5.591556
     17          1           0       -1.427301   -2.536546   -6.304402
     18          1           0       -2.140282   -1.497296   -4.752554
 ---------------------------------------------------------------------
                    Distance matrix (angstroms):
                    1          2          3          4          5
     1  C    0.000000
     2  H    1.081683   0.000000
     3  H    1.086255   1.852983   0.000000
     4  C    1.341173   2.129137   2.105170   0.000000
     5  H    2.077799   3.064988   2.380982   1.087558   0.000000
     6  C    2.543025   2.846549   3.509418   1.493376   2.190664
     7  H    3.448713   3.898599   4.295929   2.190879   2.419633
     8  C    3.130466   2.939139   4.210140   2.552953   3.459621
     9  H    3.047175   2.463726   4.108741   2.979312   4.030936
    10  C    4.585915   4.363109   5.661680   3.889195   4.658073
    11  H    5.093975   5.073791   6.124429   4.153227   4.709024
    12  C    5.559272   5.112837   6.644912   5.074299   5.932393
    13  H    6.567549   6.175799   7.653368   5.973524   6.751034
    14  C    5.744417   5.042337   6.789436   5.605390   6.597213
    15  H    6.811059   6.069280   7.844777   6.693853   7.682036
    16  C    4.957633   4.101883   5.932338   5.111552   6.175678
    17  H    5.520594   4.548570   6.400322   5.885613   6.969591
    18  H    3.823187   3.024933   4.823717   3.962076   5.032395
                    6          7          8          9         10
     6  C    0.000000
     7  H    1.090570   0.000000
     8  C    1.354978   2.096780   0.000000
     9  H    2.257313   3.185094   1.158631   0.000000
    10  C    2.469921   2.662008   1.459000   2.146917   0.000000
    11  H    2.660068   2.386407   2.160694   3.107906   1.088318
    12  C    3.748241   4.032164   2.523804   2.658489   1.370793
    13  H    4.564735   4.641165   3.465194   3.734030   2.095140
    14  C    4.529661   5.088365   3.176652   2.706191   2.592478
    15  H    5.596607   6.099365   4.248547   3.784841   3.509789
    16  C    4.345206   5.141438   3.052644   2.150627   3.103565
    17  H    5.291153   6.152775   4.056052   3.038953   4.195546
    18  H    3.292711   4.181797   2.095876   1.040626   2.615363
                   11         12         13         14         15
    11  H    0.000000
    12  C    2.118778   0.000000
    13  H    2.375281   1.087446   0.000000
    14  C    3.541745   1.500944   2.189101   0.000000
    15  H    4.338553   2.220238   2.449899   1.088585   0.000000
    16  C    4.180532   2.500668   3.414282   1.334022   2.092789
    17  H    5.271425   3.515287   4.331755   2.146052   2.477086
    18  H    3.688014   2.574246   3.642644   2.047045   3.046028
                   16         17         18
    16  C    0.000000
    17  H    1.092001   0.000000
    18  H    1.156217   1.999154   0.000000
 Stoichiometry    C8H10
 Framework group  CS[SG(C8H10)]
 Deg. of freedom    33
 Full point group                 CS      NOp   2
 Largest Abelian subgroup         CS      NOp   2
 Largest concise Abelian subgroup C1      NOp   1
                         Standard orientation:                         
 ---------------------------------------------------------------------
 Center     Atomic      Atomic             Coordinates (Angstroms)
 Number     Number       Type             X           Y           Z
 ---------------------------------------------------------------------
      1          6           0        3.126559    0.679079    0.000000
      2          1           0        2.805387   -0.353823    0.000000
      3          1           0        4.195697    0.871161    0.000000
      4          6           0        2.262702    1.704991    0.000000
      5          1           0        2.681542    2.708663    0.000000
      6          6           0        0.770872    1.637053    0.000000
      7          1           0        0.264227    2.602793    0.000000
      8          6           0        0.000000    0.522728    0.000000
      9          1           0        0.352165   -0.581087    0.000000
     10          6           0       -1.458131    0.573072    0.000000
     11          1           0       -1.888418    1.572716    0.000000
     12          6           0       -2.305224   -0.504661    0.000000
     13          1           0       -3.370015   -0.283848    0.000000
     14          6           0       -1.971581   -1.968052    0.000000
     15          1           0       -2.805460   -2.667812    0.000000
     16          6           0       -0.724823   -2.442617    0.000000
     17          1           0       -0.474314   -3.505496    0.000000
     18          1           0        0.036948   -1.572823    0.000000
 ---------------------------------------------------------------------
 Rotational constants (GHZ):      4.1298807      1.0047039      0.8081097
 Standard basis: 6-31G(d) (6D, 7F)
 There are   108 symmetry adapted basis functions of A'  symmetry.
 There are    32 symmetry adapted basis functions of A"  symmetry.
 Integral buffers will be    131072 words long.
 Raffenetti 2 integral format.
 Two-electron integral symmetry is turned on.
   140 basis functions,   264 primitive gaussians,   140 cartesian basis functions
    29 alpha electrons       29 beta electrons
       nuclear repulsion energy       311.6139450710 Hartrees.
 NAtoms=   18 NActive=   18 NUniq=   18 SFac= 1.00D+00 NAtFMM=   60 NAOKFM=F Big=F
 One-electron integrals computed using PRISM.
 NBasis=   140 RedAO= T  NBF=   108    32
 NBsUse=   140 1.00D-06 NBFU=   108    32
 Initial guess read from the read-write file.
 B after Tr=     0.000000    0.000000    0.000000
         Rot=    1.000000    0.000000    0.000000    0.000000 Ang=   0.00 deg.
 Initial guess orbital symmetries:
       Occupied  (A') (A') (A') (A') (A') (A') (A') (A') (A') (A')
                 (A') (A') (A') (A') (A') (A') (A') (A') (A') (A')
                 (A') (A') (A') (A') (A") (A") (A') (A") (A")
       Virtual   (A") (A") (A") (A') (A") (A') (A') (A') (A') (A')
                 (A') (A') (A') (A') (A') (A') (A') (A') (A') (A')
                 (A') (A') (A") (A") (A') (A') (A") (A') (A') (A")
                 (A') (A") (A') (A') (A") (A') (A") (A") (A') (A')
                 (A') (A') (A') (A') (A') (A') (A') (A') (A') (A')
                 (A') (A') (A') (A') (A') (A') (A') (A') (A") (A')
                 (A") (A') (A") (A') (A") (A") (A") (A') (A') (A")
                 (A") (A") (A') (A') (A') (A') (A') (A') (A') (A")
                 (A') (A') (A") (A') (A") (A') (A') (A") (A') (A")
                 (A') (A") (A") (A') (A') (A') (A') (A') (A') (A')
                 (A') (A') (A') (A') (A') (A') (A') (A') (A') (A')
                 (A')
 Harris functional with IExCor=  402 diagonalized for initial guess.
 ExpMin= 1.61D-01 ExpMax= 3.05D+03 ExpMxC= 4.57D+02 IAcc=1 IRadAn=         1 AccDes= 0.00D+00
 HarFok:  IExCor=  402 AccDes= 0.00D+00 IRadAn=         1 IDoV= 1
 ScaDFX=  1.000000  1.000000  1.000000  1.000000
 FoFCou: FMM=F IPFlag=           0 FMFlag=      100000 FMFlg1=           0
         NFxFlg=           0 DoJE=T BraDBF=F KetDBF=T FulRan=T
         Omega=  0.000000  0.000000  1.000000  0.000000  0.000000 ICntrl=     500 IOpCl=  0
         NMat0=    1 NMatS0=    1 NMatT0=    0 NMatD0=    1 NMtDS0=    0 NMtDT0=    0
         I1Cent=           4 NGrid=           0.
 Petite list used in FoFCou.
 Requested convergence on RMS density matrix=1.00D-08 within 128 cycles.
 Requested convergence on MAX density matrix=1.00D-06.
 Requested convergence on             energy=1.00D-06.
 No special actions if energy rises.
 Integral accuracy reduced to 1.0D-05 until final iterations.
 Initial convergence to 1.0D-05 achieved.  Increase integral accuracy.
 SCF Done:  E(RB3LYP) =  -310.744348172     A.U. after   15 cycles
             Convg  =    0.6828D-08             -V/T =  2.0106
 Calling FoFJK, ICntrl=      2127 FMM=F ISym2X=1 I1Cent= 0 IOpClX= 0 NMat=1 NMatS=1 NMatT=0.
 ***** Axes restored to original set *****
 -------------------------------------------------------------------
 Center     Atomic                   Forces (Hartrees/Bohr)
 Number     Number              X              Y              Z
 -------------------------------------------------------------------
      1        6          -0.000781853    0.002520371    0.002968865
      2        1           0.000732820   -0.002295630   -0.002721484
      3        1           0.000314461   -0.001353764   -0.001506164
      4        6           0.015527098    0.007821110   -0.005848096
      5        1           0.001098707    0.002001736    0.000915315
      6        6          -0.017172618   -0.014523126    0.001078001
      7        1           0.000393600   -0.000280089   -0.000587230
      8        6           0.009038891   -0.009274406   -0.016093913
      9        1          -0.024699114    0.047367070    0.064189269
     10        6          -0.000220682   -0.007587105   -0.006777642
     11        1           0.002530805    0.001541409   -0.000708514
     12        6          -0.003981460   -0.008921010   -0.004846880
     13        1           0.000445196    0.000231176   -0.000161321
     14        6           0.005584943    0.017630500    0.011494521
     15        1           0.002619680    0.003607740    0.001113225
     16        6          -0.019798165    0.003964713    0.020247057
     17        1          -0.002944876    0.003319424    0.005516716
     18        1           0.031312568   -0.045770117   -0.068271725
 -------------------------------------------------------------------
 Cartesian Forces:  Max     0.068271725 RMS     0.018061322

 GradGradGradGradGradGradGradGradGradGradGradGradGradGradGradGradGradGrad
 Berny optimization.
 Using GEDIIS/GDIIS optimizer.
 Internal  Forces:  Max     0.056385925 RMS     0.009115508
 Search for a local minimum.
 Step number   3 out of a maximum of   87
 All quantities printed in internal units (Hartrees-Bohrs-Radians)
 Mixed Optimization -- RFO/linear search
 Update second derivatives using D2CorX and points    2    3
 ITU=  0  1  0
 Use linear search instead of GDIIS.
     Eigenvalues ---    0.00237   0.00367   0.00372   0.00992   0.01129
     Eigenvalues ---    0.01465   0.01480   0.01483   0.01486   0.01609
     Eigenvalues ---    0.02056   0.02208   0.02681   0.02681   0.02681
     Eigenvalues ---    0.15852   0.16000   0.16000   0.16000   0.16000
     Eigenvalues ---    0.16000   0.16000   0.16000   0.16011   0.17273
     Eigenvalues ---    0.19205   0.21697   0.21885   0.22000   0.22276
     Eigenvalues ---    0.24132   0.28210   0.28585   0.30162   0.36840
     Eigenvalues ---    0.37094   0.37230   0.37230   0.37230   0.37230
     Eigenvalues ---    0.37230   0.37230   0.37260   0.40024   0.52746
     Eigenvalues ---    0.53023   0.53929   0.54062
 RFO step:  Lambda=-2.14034430D-02 EMin= 2.36824133D-03
 Quartic linear search produced a step of  0.43389.
 Iteration  1 RMS(Cart)=  0.05239216 RMS(Int)=  0.01496811
 Iteration  2 RMS(Cart)=  0.02396379 RMS(Int)=  0.00047824
 Iteration  3 RMS(Cart)=  0.00016846 RMS(Int)=  0.00046175
 Iteration  4 RMS(Cart)=  0.00000005 RMS(Int)=  0.00046175
 ClnCor:  largest displacement from symmetrization is 5.25D-08 for atom     2.
 Variable       Old X    -DE/DX   Delta X   Delta X   Delta X     New X
                                 (Linear)    (Quad)   (Total)
    R1        2.04408   0.00353   0.00639   0.00894   0.01533   2.05941
    R2        2.05273  -0.00038   0.00889  -0.00329   0.00559   2.05832
    R3        2.53445   0.00128  -0.00767   0.00552  -0.00215   2.53230
    R4        2.05519   0.00107   0.00960   0.00137   0.01097   2.06615
    R5        2.82207  -0.01999  -0.02549  -0.07404  -0.09952   2.72255
    R6        2.06088  -0.00043   0.01124  -0.00370   0.00755   2.06842
    R7        2.56054  -0.00602  -0.00012  -0.01284  -0.01296   2.54757
    R8        2.18950  -0.02483   0.04820  -0.08121  -0.03381   2.15569
    R9        2.75711  -0.00342  -0.04429  -0.00452  -0.04928   2.70783
   R10        1.96650   0.05639   0.20309   0.13116   0.33373   2.30022
   R11        2.05662   0.00132   0.01001   0.00230   0.01231   2.06894
   R12        2.59042  -0.01098   0.00872  -0.02871  -0.01975   2.57068
   R13        2.05497   0.00051   0.00954  -0.00047   0.00906   2.06404
   R14        2.83637  -0.01918  -0.02110  -0.07543  -0.09577   2.74060
   R15        2.05713   0.00096   0.01016   0.00095   0.01111   2.06824
   R16        2.52094   0.01253  -0.01148   0.03317   0.02240   2.54333
   R17        2.06358  -0.00596   0.01203  -0.02165  -0.00962   2.05396
   R18        2.18493  -0.02905   0.04694  -0.09145  -0.04466   2.14027
    A1        2.05002  -0.00195  -0.01226  -0.01332  -0.02558   2.02445
    A2        2.14028  -0.00022   0.01213  -0.00025   0.01187   2.15215
    A3        2.09289   0.00217   0.00014   0.01357   0.01371   2.10659
    A4        2.04640   0.00325  -0.01503   0.02045   0.00542   2.05182
    A5        2.22514  -0.00193   0.03839  -0.01057   0.02782   2.25296
    A6        2.01164  -0.00132  -0.02336  -0.00987  -0.03324   1.97841
    A7        2.00844   0.00093  -0.02429   0.00688  -0.01741   1.99103
    A8        2.22150  -0.00057   0.03562  -0.00221   0.03340   2.25490
    A9        2.05325  -0.00036  -0.01133  -0.00467  -0.01600   2.03726
   A10        2.22757  -0.01124   0.03750  -0.07164  -0.03340   2.19416
   A11        2.14147   0.00368   0.01431   0.01723   0.03228   2.17376
   A12        1.91414   0.00756  -0.05181   0.05441   0.00112   1.91526
   A13        2.52501  -0.00466   0.01289  -0.02234  -0.01120   2.51381
   A14        2.01178   0.00125  -0.02344   0.02227  -0.00104   2.01074
   A15        2.20243   0.00316   0.03033  -0.00068   0.02939   2.23182
   A16        2.06898  -0.00441  -0.00689  -0.02159  -0.02835   2.04063
   A17        2.03246   0.00011  -0.01931   0.00829  -0.01157   2.02089
   A18        2.25129   0.00007   0.04646  -0.01649   0.03106   2.28235
   A19        1.99944  -0.00018  -0.02715   0.00820  -0.01950   1.97994
   A20        2.04480  -0.00602  -0.01398  -0.03728  -0.05211   1.99270
   A21        2.15866   0.00281   0.01785   0.01144   0.03099   2.18965
   A22        2.07972   0.00321  -0.00388   0.02584   0.02112   2.10084
   A23        2.16597   0.00123   0.01955   0.00018   0.01924   2.18521
   A24        1.92638   0.00542  -0.04802   0.05377   0.00672   1.93310
   A25        2.19084  -0.00665   0.02847  -0.05394  -0.02597   2.16488
   A26        2.73005  -0.01435  -0.00770  -0.08011  -0.08808   2.64197
    D1        3.14159   0.00000   0.00000   0.00000   0.00000   3.14159
    D2        0.00000   0.00000   0.00000   0.00000   0.00000   0.00000
    D3        0.00000   0.00000   0.00000   0.00000   0.00000   0.00000
    D4        3.14159   0.00000   0.00000   0.00000   0.00000   3.14159
    D5        3.14159   0.00000   0.00000   0.00000   0.00000   3.14159
    D6        0.00000   0.00000   0.00000   0.00000   0.00000   0.00000
    D7        0.00000   0.00000   0.00000   0.00000   0.00000   0.00000
    D8        3.14159   0.00000   0.00000   0.00000   0.00000   3.14159
    D9        0.00000   0.00000   0.00000   0.00000   0.00000   0.00000
   D10        3.14159   0.00000   0.00000   0.00000   0.00000   3.14159
   D11        3.14159   0.00000   0.00000   0.00000   0.00000   3.14159
   D12        0.00000   0.00000   0.00000   0.00000   0.00000   0.00000
   D13       -3.14159   0.00000   0.00000   0.00000   0.00000   3.14159
   D14        0.00000   0.00000   0.00000   0.00000   0.00000   0.00000
   D15        0.00000   0.00000   0.00000   0.00000   0.00000   0.00000
   D16        3.14159   0.00000   0.00000   0.00000   0.00000   3.14159
   D17       -3.14159   0.00000   0.00000   0.00000   0.00000   3.14159
   D18        0.00000   0.00000   0.00000   0.00000   0.00000   0.00000
   D19        0.00000   0.00000   0.00000   0.00000   0.00000   0.00000
   D20        3.14159   0.00000   0.00000   0.00000   0.00000   3.14159
   D21        0.00000   0.00000   0.00000   0.00000   0.00000   0.00000
   D22        0.00000   0.00000   0.00000   0.00000   0.00000   0.00000
   D23        3.14159   0.00000   0.00000   0.00000   0.00000   3.14159
   D24        3.14159   0.00000   0.00000   0.00000   0.00000   3.14159
   D25        0.00000   0.00000   0.00000   0.00000   0.00000   0.00000
   D26        0.00000   0.00000   0.00000   0.00000   0.00000   0.00000
   D27        3.14159   0.00000   0.00000   0.00000   0.00000   3.14159
   D28        3.14159   0.00000   0.00000   0.00000   0.00000   3.14159
   D29        0.00000   0.00000   0.00000   0.00000   0.00000   0.00000
   D30        0.00000   0.00000   0.00000   0.00000   0.00000   0.00000
   D31        3.14159   0.00000   0.00000   0.00000   0.00000   3.14159
   D32        0.00000   0.00000   0.00000   0.00000   0.00000   0.00000
   D33        3.14159   0.00000   0.00000   0.00000   0.00000   3.14159
         Item               Value     Threshold  Converged?
 Maximum Force            0.056386     0.000450     NO 
 RMS     Force            0.009116     0.000300     NO 
 Maximum Displacement     0.208012     0.001800     NO 
 RMS     Displacement     0.071303     0.001200     NO 
 Predicted change in Energy=-1.008372D-02
 GradGradGradGradGradGradGradGradGradGradGradGradGradGradGradGradGradGrad

                          Input orientation:                          
 ---------------------------------------------------------------------
 Center     Atomic      Atomic             Coordinates (Angstroms)
 Number     Number       Type             X           Y           Z
 ---------------------------------------------------------------------
      1          6           0       -5.088475   -1.450081   -2.235997
      2          1           0       -4.715328   -2.029148   -3.080445
      3          1           0       -6.014283   -1.805390   -1.785413
      4          6           0       -4.468405   -0.362508   -1.758094
      5          1           0       -4.926166    0.147419   -0.906115
      6          6           0       -3.249892    0.260069   -2.208953
      7          1           0       -2.962990    1.147168   -1.635533
      8          6           0       -2.434406   -0.097458   -3.221168
      9          1           0       -2.585486   -0.990811   -3.914267
     10          6           0       -1.237019    0.600387   -3.585230
     11          1           0       -1.004982    1.478560   -2.973976
     12          6           0       -0.368312    0.301315   -4.588446
     13          1           0        0.487784    0.971766   -4.691342
     14          6           0       -0.380750   -0.772341   -5.563318
[...]
 0.0280719,0.2132965,0.0122313,-0.0007755,0.0969444,0.0262325,0.0296405
 ,-0.1128608,0.12173,-0.0902039,-0.0562582,-0.0112297,0.1619073,0.04382
 39,0.2538559,0.1651072,0.0634703,0.1282062,0.1406056,-0.1146246,0.0400
 063,-0.0885807,-0.0078006,-0.0784923,-0.0495824,-0.0967651,0.0014576,-
 0.088302,0.0453521,-0.094693,-0.0219732,-0.0185552,0.0697743,-0.080129
 6,-0.0469294,0.0656424,0.0300371,-0.1202758,0.0431581,-0.0592729,0.015
 968,-0.0866499,-0.0181801,-0.0605747,-0.0091562,-0.0835412,0.0580488,0
 .1359185,0.0309577,-0.1795271,0.2053695,0.040612,-0.0322741,-0.0194675
 ,0.1140392,0.0090345,0.0346823,-0.0326118,0.0376558,-0.0870685,-0.0498
 966,-0.0785112,-0.0123197,-0.1241947,0.0116054,-0.1646146,0.2199172,0.
 2059029,0.0371288,0.0772787,0.1863751,0.0381559,0.0330347,-0.1614408,-
 0.0653017,-0.1207381,0.0454671,-0.1141071,-0.0148109,-0.0288916,0.0515
 524,-0.0233289,0.0563224,0.1670028,-0.0679338,-0.2692523,-0.0664237,0.
 0092598,0.1373081,-0.2678665,0.1385749,0.2722425,-0.0836999,-0.0255527
 ,0.1491509,-0.0476989,0.0612631,-0.0157684,0.1288271,-0.0343468,-0.017
 545,-0.0414937,0.0417741,-0.2117993,0.15278,-0.2019439,-0.0017769,-0.1
 09928,0.0913455,-0.1636196,0.0759527,0.0008685,0.0604051,-0.0004474,0.
 0125969,-0.1229755,0.0591975,-0.1240794,-0.0165214,-0.0343211,-0.05465
 81,0.1106938,-0.0568855,0.088832,-0.0152265,0.1086496,-0.0170952,0.050
 5899\Polar=122.2592676,21.8538236,76.9553276,-60.8467246,28.5940892,10
 3.1054891\PG=CS [SG(C8H10)]\NImag=2\\0.54171203,0.23289141,0.59278993,
 -0.14819947,0.24743316,0.46167603,-0.09074404,0.04675877,0.08737423,0.
 08582416,0.04421298,-0.12656309,-0.11860219,-0.04642657,0.12811377,0.0
 8503793,-0.12073784,-0.21988242,-0.09610921,0.13628641,0.22774340,-0.2
 5945854,-0.08883259,0.10874734,-0.00543015,-0.00552904,0.00253350,0.27
 089525,-0.08500092,-0.07945281,0.02835404,0.01335469,0.00710289,-0.008
 02379,0.09837669,0.07965320,0.11226371,0.03156841,-0.09785533,0.019863
 31,0.00781769,-0.00585047,-0.11858536,-0.02954268,0.09428616,-0.176154
 51,-0.15546998,-0.04180216,0.01090642,0.01191390,0.00708772,-0.0082405
 8,-0.02577045,-0.01224807,0.50359302,-0.16620656,-0.36240714,-0.141847
 81,-0.00939822,-0.00878697,-0.00598159,-0.00231506,-0.00563016,-0.0081
 3528,0.20163669,0.60186521,-0.05165524,-0.15085468,-0.15101556,-0.0124
 7066,-0.02386024,-0.00511317,0.00927721,0.01154136,0.00815984,-0.12048
 634,0.25526894,0.47472597,0.00899650,-0.01150718,-0.01268980,0.0025685
 8,-0.00590006,0.00248079,-0.00130024,0.00273940,-0.00307416,-0.1021210
 2,0.04928160,0.09453751,0.10624371,0.01097423,-0.01150911,-0.02569485,
 -0.00584575,0.00091505,-0.00525062,0.00253854,-0.00187571,0.00345546,0
 .04889059,-0.11120615,-0.10329572,-0.04419043,0.11632435,0.00794163,-0
 .00683529,-0.00647703,0.00253064,-0.00520505,0.00508050,-0.00325849,0.
 00328696,-0.00221153,0.09417867,-0.10362374,-0.21744265,-0.10622937,0.
 11816789,0.22551524,-0.02388241,-0.03011697,-0.00123192,-0.00240549,0.
 00306150,-0.00157529,0.00404260,-0.00322760,0.00277244,-0.19496555,-0.
 04741712,0.06557237,-0.01139456,-0.01009367,0.00342825,0.52557706,-0.0
 3112202,-0.01156872,0.00852083,0.00280046,-0.00138488,0.00338415,-0.00
 443709,0.00098682,-0.00535527,-0.07440025,-0.12124273,0.01073378,0.012
 69476,0.00704441,-0.00761161,0.11321059,0.49362187,-0.00215427,0.00767
 770,0.01644870,-0.00181484,0.00316517,-0.00320526,0.00166247,-0.006369
 90,0.00363793,0.04080965,-0.01190225,-0.11008629,0.02434144,0.01150550
 ,-0.00612716,-0.22088770,0.23099856,0.53571418,-0.00316394,-0.00097682
 ,0.00341234,0.00014808,0.00005529,-0.00015729,-0.00055894,-0.00097080,
 -0.00040062,-0.00760149,-0.02522166,-0.01341025,0.00034508,0.00072382,
 -0.00054018,-0.07738749,-0.07022238,-0.03433628,0.08012500,-0.00233129
 ,0.00113730,0.00118940,0.00025324,0.00012781,-0.00000346,-0.00026664,-
 0.00050134,-0.00025982,-0.00247790,-0.00832442,-0.00923541,0.00040436,
 0.00042196,0.00104894,-0.06970158,-0.23101634,-0.11545077,0.08050757,0
 .24223636,0.00216933,0.00005314,0.00020125,0.00002437,0.00016259,0.000
 02887,0.00024560,0.00033090,0.00012315,0.00746196,0.00984424,0.0067785
 5,-0.00083336,0.00078094,0.00032511,-0.03385834,-0.11501388,-0.1186438
 6,0.02853619,0.13084082,0.12220519,0.00515887,0.01027431,0.00533479,0.
 00003274,-0.00030157,-0.00002690,0.00007566,0.00047466,-0.00008307,-0.
 03459545,-0.00697867,0.02788392,-0.00302221,-0.00276633,0.00202470,-0.
 19035548,0.05014589,0.15447777,0.00797391,-0.00622446,-0.00671005,0.52
 570899,-0.00244460,-0.00008253,0.00171936,-0.00069853,-0.00054788,-0.0
 0022018,0.00029213,-0.00043283,-0.00014431,-0.00809924,0.01212548,0.01
 216098,-0.00423116,-0.00038317,0.00097925,0.05093439,-0.14154227,-0.11
 658035,0.01499472,-0.00730875,-0.02551254,0.12686445,0.51948944,-0.006
 33749,-0.00895047,-0.00261887,-0.00039119,-0.00055318,0.00015108,-0.00
 025058,-0.00029744,-0.00060537,0.02685556,0.01122093,-0.00595372,0.000
 68041,-0.00024959,0.00161771,0.15520138,-0.11591889,-0.29764628,0.0127
 6304,-0.00771186,-0.01099961,-0.20917687,0.24405874,0.53703057,-0.0004
 3481,0.00027162,0.00081261,-0.00089503,-0.00108357,0.00071978,0.000102
 40,0.00002003,-0.00026791,-0.00189467,0.00108598,-0.00273473,0.0001808
 1,-0.00003310,-0.00026063,0.00971260,0.01596406,0.01246336,0.00123386,
 -0.00192874,0.00591392,-0.07626938,-0.06812964,-0.03481531,0.07411404,
 -0.00019150,0.00021145,0.00013745,-0.00089158,0.00058124,0.00022750,0.
 00006201,0.00010227,0.00026105,0.00111197,-0.00246208,0.00262836,0.000
 12505,0.00004578,0.00002306,-0.00527262,-0.00524062,-0.00690704,-0.002
 12064,0.00378632,-0.00428446,-0.06838741,-0.23858393,-0.12189921,0.078
 25236,0.25094075,0.00038761,-0.00025105,-0.00031884,0.00089597,0.00038
 856,0.00075331,-0.00022939,0.00029627,0.00022544,-0.00271088,0.0026501
 6,-0.00163636,-0.00011549,0.00015573,0.00014614,-0.00702578,-0.0247224
 0,-0.00968857,0.00573782,-0.00444544,0.00150040,-0.03505186,-0.1221154
 5,-0.12590206,0.02946772,0.14295402,0.13010671,-0.00280125,-0.00521390
 ,-0.00291004,-0.00009874,-0.00009808,-0.00000369,-0.00007355,0.0000381
 3,-0.00034023,0.01502274,0.00755221,0.00293554,0.00003628,-0.00006407,
 -0.00006411,-0.04520469,-0.00845506,0.03606300,-0.00139076,0.00081608,
 -0.00417491,-0.19893600,-0.08797965,0.03129237,-0.00386692,-0.00234004
 ,0.00458708,0.55112476,-0.00034704,-0.00194932,-0.00097800,0.00006113,
 0.00038227,0.00029572,0.00015530,0.00001354,0.00036012,0.00115756,0.00
 473409,-0.00604252,0.00089500,0.00030891,-0.00049481,0.00213999,0.0113
 9701,0.00220932,0.00411053,-0.00169451,0.00165937,-0.09055203,-0.14483
 567,0.00305432,-0.02401248,-0.00905383,0.00801660,0.11919584,0.4774402
 3,0.00155633,0.00310479,0.00097731,0.00014242,0.00042928,0.00027864,-0
 .00023270,0.00045841,0.00009508,-0.00293290,-0.01140696,0.00225238,0.0
 0081605,0.00030975,-0.00037036,0.04578619,0.01109746,-0.02119220,-0.00
 115156,0.00442307,-0.00223504,0.02893167,0.00089636,-0.08883673,-0.015
 30196,-0.01016432,0.00766980,-0.23658737,0.21086553,0.53069371,-0.0000
 1599,-0.00014624,-0.00013248,0.00004358,0.00013109,0.00012076,-0.00000
 803,0.00007191,0.00008501,0.00027251,0.00043186,0.00002760,-0.00000578
 ,0.00000571,0.00005562,0.00007496,-0.00050047,-0.00242883,0.00001325,0
 .00081281,0.00100951,-0.00664848,-0.02582650,-0.01431452,-0.00262601,-
 0.00271784,0.00280738,-0.06535714,-0.05352685,-0.02829077,0.07051309,0
 .00007289,-0.00006365,-0.00010677,0.00001430,0.00010596,0.00004475,-0.
 00000858,0.00005798,0.00004696,0.00012885,0.00019331,0.00022260,-0.000
 07808,0.00002599,0.00003955,0.00233685,0.00014128,0.00025508,-0.000605
 65,0.00073372,0.00088089,-0.00515350,-0.01308287,-0.01185031,-0.003144
 45,0.00095281,0.00012253,-0.05196381,-0.22459301,-0.12532887,0.0621454
 1,0.23585768,0.00006861,0.00007705,-0.00000078,0.00001358,-0.00005323,
 -0.00001611,0.00001115,-0.00002056,-0.00001357,-0.00025048,-0.00003160
 ,0.00001410,-0.00002128,-0.00003075,0.00004391,0.00017501,0.00263529,-
 0.00000120,-0.00029222,-0.00030904,0.00028900,0.00465733,0.00549218,0.
 00567416,0.00241588,-0.00023535,0.00145104,-0.02685635,-0.12401764,-0.
 13180789,0.02024570,0.13984697,0.13801788,0.00059142,0.00201744,0.0013
 3989,0.00006408,-0.00009232,-0.00007539,-0.00007294,-0.00006572,-0.000
 04318,-0.00376998,-0.00294709,0.00050704,-0.00047365,-0.00008890,0.000
 16603,0.00634629,-0.00566447,-0.00811845,0.00027514,0.00016926,-0.0000
 0304,-0.03118220,0.00438922,0.03533569,0.00004322,0.00041950,-0.001063
 83,-0.23936422,0.03961887,0.18805403,0.00433481,-0.00513074,-0.0036718
 9,0.56700530,-0.00093608,-0.00137957,-0.00046393,-0.00003985,-0.000038
 32,-0.00007076,0.00002467,-0.00008361,-0.00004923,0.00264133,0.0028752
 2,0.00036922,-0.00020502,-0.00011558,0.00022972,-0.00948834,-0.0007301
 2,0.00466008,-0.00014026,0.00028444,0.00029945,-0.00131307,0.01463489,
 0.00889933,0.00117001,-0.00035160,0.00024108,0.01187666,-0.11669149,-0
 .06333249,0.01788376,-0.00364954,-0.02346398,0.12831629,0.45417386,-0.
 00137059,-0.00294163,-0.00156813,-0.00002724,-0.00002674,0.00007351,0.
 00003978,0.00002659,-0.00006147,0.00563560,0.00505732,-0.00002811,0.00
 005947,0.00013230,-0.00010695,-0.01162766,0.00145225,0.01395254,-0.000
 28709,0.00003979,0.00036371,0.03010264,0.00411570,-0.01533806,-0.00037
 508,0.00087068,-0.00057014,0.16259470,-0.08660531,-0.27441546,0.017448
 77,-0.00415721,-0.01288228,-0.24355518,0.18406763,0.50954351,0.0000078
 3,-0.00004043,0.00004412,0.00000232,0.00003515,-0.00001827,-0.00000694
 ,-0.00003090,0.00002777,-0.00036495,0.00050697,-0.00020513,-0.00010004
 ,-0.00003177,0.00006686,-0.00065836,-0.00070243,-0.00022093,0.00012131
 ,-0.00002808,0.00017292,0.00293326,-0.00087458,0.00609181,0.00010421,0
 .00009778,-0.00025583,-0.01699598,-0.01683612,0.00338232,-0.00126416,0
 .00280702,-0.00233674,-0.21511806,-0.13848364,0.02048098,0.22737026,-0
 .00006270,-0.00002592,-0.00006724,0.00001778,-0.00001220,0.00002703,-0
 .00002516,0.00001979,-0.00001576,0.00048944,-0.00033213,0.00035290,-0.
 00000007,0.00000892,-0.00000500,0.00000362,0.00008456,0.00021524,-0.00
 013626,0.00011116,-0.00011236,-0.00188755,0.00413948,-0.00485175,0.000
 28749,0.00000929,0.00004975,0.00627856,0.00583955,-0.00491304,0.003243
 81,-0.00109127,0.00281179,-0.13947436,-0.15947716,0.00663345,0.1507619
 7,0.16757920,0.00002369,-0.00008592,0.00000594,-0.00003421,0.00001246,
 -0.00001777,0.00003304,-0.00001095,0.00002220,-0.00022122,0.00033820,-
 0.00066814,0.00009595,0.00002160,-0.00004625,0.00042703,0.00080755,0.0
 0022957,0.00007364,-0.00020311,0.00010998,0.00516220,-0.00570153,0.001
 58882,-0.00008173,0.00020889,-0.00004745,0.02459492,0.01447777,-0.0018
 9238,-0.00193590,0.00317820,-0.00257971,0.01957179,0.00580234,-0.05030
 330,-0.03079278,0.00369599,0.05496145,0.00056598,0.00057478,0.00004426
 ,-0.00002413,0.00004099,-0.00004884,0.00004724,0.00001407,0.00007086,-
 0.00122252,-0.00081112,0.00037048,0.00005885,-0.00001600,-0.00004877,0
 .00216573,-0.00021990,-0.00192627,0.00003859,-0.00007150,-0.00002799,-
 0.00433799,0.00082465,-0.00064674,0.00004476,-0.00045417,-0.00020235,0
 .01278329,0.01716547,0.00942856,0.00121463,-0.00160942,0.00591145,-0.1
 0134618,0.00404775,0.03335041,0.00141582,-0.02114064,-0.01708432,0.579
 51603,0.00052150,0.00141509,0.00087037,0.00004903,-0.00007029,0.000011
 08,-0.00006982,0.00000163,-0.00004667,-0.00261179,-0.00240827,-0.00011
 675,-0.00010558,-0.00002279,0.00005095,0.00522510,-0.00115026,-0.00553
 995,0.00010389,0.00008071,-0.00008967,-0.00920833,-0.00390986,0.009653
 12,-0.00021714,0.00034224,0.00022056,0.02141369,0.00005213,-0.02272882
 ,-0.00286962,0.00494613,-0.00225083,-0.02701205,-0.16424051,-0.0674786
 1,0.00191302,-0.01539228,-0.01956415,0.25359112,0.56760369,-0.00000463
 ,0.00082567,0.00075159,-0.00004146,0.00001783,-0.00007604,-0.00000613,
 -0.00011705,0.00001404,-0.00128202,-0.00162732,-0.00031150,-0.00013098
 ,-0.00002420,0.00010588,0.00307066,-0.00097217,-0.00335805,0.00013297,
 0.00005747,0.00002464,-0.00985412,0.00123649,0.00339027,0.00001518,0.0
 0041941,0.00067255,0.01332720,-0.01916501,-0.02352372,0.00475494,-0.00
 330801,0.00299726,0.00484650,-0.09353454,-0.15592248,0.00407229,-0.000
 22453,0.00055513,-0.13660668,0.18036056,0.41937626,-0.00005032,-0.0000
 3599,-0.00000198,0.00002084,0.00001219,0.00001030,-0.00002011,-0.00000
 330,0.00001362,0.00005463,-0.00003045,-0.00007592,-0.00001921,0.000010
 14,0.00002908,0.00003061,0.00010493,-0.00001811,0.00001273,0.00002086,
 0.00003301,-0.00005395,-0.00013620,-0.00023792,0.00016186,0.00001870,-
 0.00006540,0.00204738,-0.00000024,0.00038992,-0.00023005,0.00004572,0.
 00017410,-0.00018726,-0.00417729,-0.00032842,0.00090317,0.00084144,-0.
 00098106,-0.22258110,-0.01815037,0.13359011,0.23534430,0.00005178,0.00
 000937,-0.00002262,0.00000327,0.00001673,-0.00000554,-0.00000294,0.000
 01139,0.00001316,-0.00006500,-0.00004511,0.00001548,0.00000606,0.00000
 889,-0.00000094,0.00027980,0.00004548,-0.00009593,-0.00003132,0.000051
 55,0.00004674,-0.00041068,-0.00036519,0.00018243,0.00011494,0.00004252
 ,-0.00011562,-0.00145543,-0.00167406,-0.00262104,0.00048822,-0.0003664
 1,-0.00067925,0.01888510,-0.00006736,-0.01956703,0.00095206,0.00009766
 ,0.00038008,-0.01792766,-0.05287849,0.00641460,0.02853913,0.05742170,0
 .00007856,0.00005101,-0.00003241,0.00000211,-0.00001302,0.00000605,0.0
 0001395,0.00001346,0.00000038,-0.00010762,-0.00001350,0.00007534,0.000
 02534,-0.00000435,-0.00002088,0.00014237,0.00005076,-0.00017860,-0.000
 01488,0.00000296,0.00004446,-0.00048981,-0.00004783,0.00017844,0.00002
 292,-0.00003489,0.00001220,-0.00094553,-0.00384180,-0.00022002,0.00058
 018,-0.00030805,-0.00084195,0.02083620,-0.00022009,-0.01369037,-0.0008
 7954,0.00047287,-0.00001498,0.13379450,0.00660144,-0.14966171,-0.14767
 033,0.00297258,0.15470244,-0.00030214,-0.00046307,-0.00008267,-0.00008
 315,-0.00003375,-0.00002374,0.00003079,-0.00001418,-0.00007945,0.00100
 676,0.00082921,0.00002975,0.00002977,-0.00000985,-0.00005215,-0.002401
 67,-0.00017807,0.00195555,-0.00007067,-0.00013361,-0.00028027,0.005508
 81,0.00102438,-0.00313681,-0.00103632,0.00039591,0.00088716,-0.0063811
 0,0.00157140,0.00644110,-0.00048344,-0.00017409,-0.00000530,0.01272742
 ,-0.00912686,-0.01314241,0.00166580,0.00139133,0.00172181,-0.26206402,
 -0.20441062,-0.01389520,-0.01667035,-0.02590310,-0.00438770,0.58152222
 ,-0.00009613,-0.00050179,-0.00047704,-0.00001806,-0.00003719,0.0000494
 2,0.00005701,0.00002325,0.00001793,0.00084101,0.00108511,0.00016631,0.
 00009640,0.00000484,-0.00005658,-0.00246259,0.00002117,0.00197128,0.00
 006923,-0.00023727,-0.00003849,0.00593444,0.00186135,-0.00386576,0.000
 22760,-0.00145008,-0.00114368,-0.00914506,0.00077438,0.00876975,-0.000
 04157,-0.00011585,0.00020324,-0.01059613,-0.02664257,-0.02202681,-0.00
 016953,-0.00088191,-0.00268262,-0.21670942,-0.32318114,-0.06430481,-0.
 00359037,-0.00122838,-0.00402178,0.25442730,0.57391015,0.00025408,-0.0
 0016921,-0.00026254,-0.00000934,0.00006258,-0.00000926,-0.00001412,0.0
 0007765,0.00003470,0.00004058,0.00017621,0.00026278,0.00004535,0.00003
 255,-0.00002979,-0.00014099,0.00005480,0.00029279,-0.00009413,0.000131
 66,-0.00005882,0.00136920,0.00025327,-0.00026722,0.00073269,-0.0012848
 8,-0.00220570,-0.00339352,-0.00022025,0.00222262,0.00011632,0.00031441
 ,-0.00010835,-0.01449078,-0.02325938,-0.00214369,0.00028940,-0.0039920
 1,-0.00171006,-0.02518195,-0.07462222,-0.10236904,0.01608893,0.0146962
 7,0.00642604,-0.16251247,0.21278464,0.44107507,0.00000274,-0.00004098,
 -0.00005842,0.00004190,0.00002228,0.00002097,-0.00001592,0.00000846,0.
 00002469,-0.00000526,0.00006838,-0.00008322,-0.00000679,0.00000655,0.0
 0001434,0.00028111,0.00038156,0.00010688,0.00002846,-0.00002326,0.0002
 3299,-0.00043363,-0.00070316,0.00003309,0.00036686,0.00044215,-0.00002
 641,-0.00056839,-0.00018324,0.00003127,-0.00019879,0.00046850,-0.00053
 605,0.00142929,-0.00498726,0.00376149,-0.00010573,-0.00063698,-0.00045
 879,0.00579253,-0.01769393,-0.01668097,-0.00124936,0.00265114,-0.00351
 934,-0.06274515,0.03133077,0.05374803,0.05929301,0.00005829,0.00000385
 ,-0.00002511,-0.00001385,0.00001569,-0.00001301,0.00000521,0.00001081,
 0.00000164,0.00001349,-0.00004621,0.00011079,0.00001293,0.00000029,-0.
 00001345,0.00009248,0.00008155,0.00000543,-0.00012485,0.00012347,-0.00
 008631,-0.00024992,0.00013069,-0.00001458,0.00015063,-0.00004733,-0.00
 003370,-0.00009107,-0.00020209,0.00019438,0.00054403,-0.00046935,0.000
 35208,-0.00618965,0.00307923,-0.00241511,-0.00008351,-0.00081622,-0.00
 071956,0.00574676,-0.01289285,-0.02148405,0.00272777,-0.00214244,0.003
 40364,0.02735253,-0.16300309,-0.14229754,-0.02651751,0.17062280,0.0000
 3268,0.00005816,0.00000390,-0.00001219,-0.00004331,0.00001300,0.000021
 71,-0.00000108,-0.00001495,-0.00013359,0.00006475,-0.00000778,0.000020
 19,-0.00000810,-0.00002124,-0.00015842,-0.00023709,-0.00009358,0.00013
 977,-0.00017153,0.00005698,0.00044903,0.00036564,0.00033390,-0.0002939
 4,-0.00027825,-0.00015707,0.00011586,0.00027170,-0.00017851,-0.0004667
 3,0.00041544,-0.00057751,0.00265804,-0.00342379,0.00599710,0.00004914,
 -0.00025526,-0.00023127,0.00483082,-0.00181975,-0.00045816,-0.00344902
 ,0.00346793,-0.00226886,0.05009715,-0.14563487,-0.20862654,-0.05549491
 ,0.15850099,0.21416210,-0.00002743,0.00005582,-0.00000066,0.00002803,-
 0.00002040,0.00002685,-0.00000800,-0.00001416,0.00000064,0.00007991,-0
 .00006697,-0.00001993,-0.00001608,-0.00000970,0.00001788,0.00042474,0.
 00059987,0.00002556,-0.00014213,0.00020288,0.00008814,-0.00155748,-0.0
 0020067,0.00105408,0.00095853,0.00145036,0.00197648,0.00002429,-0.0006
 1311,-0.00046260,0.00037103,-0.00015122,0.00029751,-0.00130246,0.00293
 723,-0.00276017,0.00009023,0.00004828,-0.00011405,-0.01206752,-0.00046
 810,0.01469233,0.00248621,-0.00617536,0.00251863,-0.25025356,-0.050154
 90,0.13315271,-0.00190688,-0.00343376,0.00159441,0.26281856,-0.0000442
 3,-0.00006331,0.00006094,0.00001975,0.00007942,-0.00001927,-0.00002464
 ,-0.00000710,0.00000659,0.00006976,0.00001294,-0.00016540,-0.00003797,
 0.00000310,0.00002016,0.00049616,0.00045178,0.00018285,-0.00001442,-0.
 00001217,0.00023862,-0.00026022,-0.00130639,-0.00090585,0.00100440,0.0
 0017482,-0.00226792,-0.00036501,-0.00024812,-0.00005325,-0.00012951,0.
 00041709,-0.00032636,0.00344575,-0.00158021,0.00282275,0.00020701,0.00
 013947,0.00004476,-0.02304575,0.00170513,0.01542965,-0.00619665,0.0010
 6215,-0.00506343,-0.04654488,-0.06040100,0.01726144,0.01540654,0.00555
 120,-0.01127158,0.05601391,0.05402119,-0.00009248,-0.00002300,-0.00003
 281,0.00006370,0.00001441,0.00004215,-0.00000898,-0.00000220,0.0000137
 6,0.00010555,-0.00005070,-0.00000566,-0.00000807,-0.00000355,0.0000193
 5,-0.00006961,0.00009586,-0.00005465,-0.00011127,0.00005633,-0.0001139
 6,0.00099943,-0.00095580,-0.00179701,0.00156722,-0.00264203,-0.0020114
 0,-0.00023491,0.00015489,0.00048277,0.00031743,-0.00030815,0.00034201,
 -0.00229349,0.00324934,-0.00289993,0.00003162,0.00017793,0.00003822,-0
 .00602743,-0.00351064,0.00779309,0.00249909,-0.00508129,0.00548444,0.1
 3646566,0.02028986,-0.13252297,0.01888436,0.00453346,-0.00793151,-0.15
 208781,-0.01599471,0.13315410\\0.00000010,-0.00000537,-0.00000501,-0.0
 0000159,-0.00000204,-0.00000055,-0.00000162,-0.00000371,-0.00000204,-0
 .00000512,-0.00000213,0.00000234,-0.00000114,-0.00000259,-0.00000142,0
 .00000930,0.00000450,-0.00000367,-0.00000283,-0.00000228,0.00000028,-0
 .00000097,0.00000306,0.00000363,0.00000163,-0.00000365,-0.00000472,0.0
 0000087,0.00000265,0.00000171,-0.00000233,-0.00000143,0.00000064,-0.00
 000550,-0.00000062,0.00000404,0.00000056,0.00000379,0.00000301,0.00000
 368,0.00000277,-0.00000055,0.00000044,0.00000251,0.00000194,0.00000026
 ,-0.00000286,-0.00000284,0.00000416,0.00000211,-0.00000155,0.00000009,
 0.00000529,0.00000478\\\@


 IF IT'S NOT TRUE, IT'S WELL INVENTED -- DANTE
 Job cpu time:  0 days  0 hours  1 minutes 42.6 seconds.
 File lengths (MBytes):  RWF=     27 Int=      0 D2E=      0 Chk=      3 Scr=      1
 Normal termination of Gaussian 09 at Tue Mar  2 16:06:11 2021.
