 Entering Gaussian System, Link 0=g09
 Input=oct05.com
 Output=oct05.log
 Initial command:
 /home/student/g09/l1.exe /home/student/singh/other/Gau-23157.inp -scrdir=/home/student/singh/other/
 Entering Link 1 = /home/student/g09/l1.exe PID=     23159.
  
 Copyright (c) 1988,1990,1992,1993,1995,1998,2003,2009,2011,
            Gaussian, Inc.  All Rights Reserved.
  
 This is part of the Gaussian(R) 09 program.  It is based on
 the Gaussian(R) 03 system (copyright 2003, Gaussian, Inc.),
 the Gaussian(R) 98 system (copyright 1998, Gaussian, Inc.),
 the Gaussian(R) 94 system (copyright 1995, Gaussian, Inc.),
 the Gaussian 92(TM) system (copyright 1992, Gaussian, Inc.),
 the Gaussian 90(TM) system (copyright 1990, Gaussian, Inc.),
 the Gaussian 88(TM) system (copyright 1988, Gaussian, Inc.),
 the Gaussian 86(TM) system (copyright 1986, Carnegie Mellon
 University), and the Gaussian 82(TM) system (copyright 1983,
 Carnegie Mellon University). Gaussian is a federally registered
 trademark of Gaussian, Inc.
  
 This software contains proprietary and confidential information,
 including trade secrets, belonging to Gaussian, Inc.
  
 This software is provided under written license and may be
 used, copied, transmitted, or stored only in accord with that
 written license.
  
 The following legend is applicable only to US Government
 contracts under FAR:
  
                    RESTRICTED RIGHTS LEGEND
  
 Use, reproduction and disclosure by the US Government is
 subject to restrictions as set forth in subparagraphs (a)
 and (c) of the Commercial Computer Software - Restricted
 Rights clause in FAR 52.227-19.
  
 Gaussian, Inc.
 340 Quinnipiac St., Bldg. 40, Wallingford CT 06492
  
  
 ---------------------------------------------------------------
 Warning -- This program may not be used in any manner that
 competes with the business of Gaussian, Inc. or will provide
 assistance to any competitor of Gaussian, Inc.  The licensee
 of this program is prohibited from giving any competitor of
 Gaussian, Inc. access to this program.  By using this program,
 the user acknowledges that Gaussian, Inc. is engaged in the
 business of creating and licensing software in the field of
 computational chemistry and represents and warrants to the
 licensee that it is not a competitor of Gaussian, Inc. and that
 it will not use this program in any manner prohibited above.
 ---------------------------------------------------------------
  

 Cite this work as:
 Gaussian 09, Revision C.01,
 M. J. Frisch, G. W. Trucks, H. B. Schlegel, G. E. Scuseria, 
 M. A. Robb, J. R. Cheeseman, G. Scalmani, V. Barone, B. Mennucci, 
 G. A. Petersson, H. Nakatsuji, M. Caricato, X. Li, H. P. Hratchian, 
 A. F. Izmaylov, J. Bloino, G. Zheng, J. L. Sonnenberg, M. Hada, 
 M. Ehara, K. Toyota, R. Fukuda, J. Hasegawa, M. Ishida, T. Nakajima, 
 Y. Honda, O. Kitao, H. Nakai, T. Vreven, J. A. Montgomery, Jr., 
 J. E. Peralta, F. Ogliaro, M. Bearpark, J. J. Heyd, E. Brothers, 
 K. N. Kudin, V. N. Staroverov, T. Keith, R. Kobayashi, J. Normand, 
 K. Raghavachari, A. Rendell, J. C. Burant, S. S. Iyengar, J. Tomasi, 
 M. Cossi, N. Rega, J. M. Millam, M. Klene, J. E. Knox, J. B. Cross, 
 V. Bakken, C. Adamo, J. Jaramillo, R. Gomperts, R. E. Stratmann, 
 O. Yazyev, A. J. Austin, R. Cammi, C. Pomelli, J. W. Ochterski, 
 R. L. Martin, K. Morokuma, V. G. Zakrzewski, G. A. Voth, 
 P. Salvador, J. J. Dannenberg, S. Dapprich, A. D. Daniels, 
 O. Farkas, J. B. Foresman, J. V. Ortiz, J. Cioslowski, 
 and D. J. Fox, Gaussian, Inc., Wallingford CT, 2010.
 
 ******************************************
 Gaussian 09:  EM64L-G09RevC.01 23-Sep-2011
                 2-Mar-2021 
 ******************************************
 %chk=oct05.chk
 -----------------------------------------
 # opt freq b3lyp/6-31g* geom=connectivity
 -----------------------------------------
 1/14=-1,18=20,19=15,26=3,38=1,57=2/1,3;
 2/9=110,12=2,17=6,18=5,40=1/2;
 3/5=1,6=6,7=1,11=2,16=1,25=1,30=1,71=1,74=-5/1,2,3;
 4//1;
 5/5=2,38=5/2;
 6/7=2,8=2,9=2,10=2,28=1/1;
 7//1,2,3,16;
 1/14=-1,18=20,19=15/3(2);
 2/9=110/2;
 99//99;
 2/9=110/2;
 3/5=1,6=6,7=1,11=2,16=1,25=1,30=1,71=1,74=-5/1,2,3;
 4/5=5,16=3/1;
 5/5=2,38=5/2;
 7//1,2,3,16;
 1/14=-1,18=20,19=15/3(-5);
 2/9=110/2;
 6/7=2,8=2,9=2,10=2,19=2,28=1/1;
 99/9=1/99;
 -------------------
 Title Card Required
 -------------------
 Charge =  0 Multiplicity = 1
 Symbolic Z-Matrix:
 C                    -5.86408   2.63386   2.38942 
 H                    -5.31997   3.55516   2.38308 
 H                    -6.93393   2.64657   2.40213 
 C                    -5.20286   1.45094   2.38139 
 H                    -5.74697   0.52964   2.38773 
 C                    -3.66308   1.43264   2.3631 
 H                    -3.14101   0.49867   2.35676 
 C                    -2.96702   2.5954    2.35499 
 H                    -3.48353   3.53246   2.36126 
 C                    -1.42737   2.56795   2.33669 
 H                    -0.91086   1.63089   2.33042 
 C                    -0.72441   3.72655   2.3285 
 H                    -1.23535   4.66666   2.3347 
 C                     0.81504   3.68996   2.3102 
 H                     1.37006   4.60473   2.30374 
 C                     1.46922   2.50313   2.30226 
 H                     0.91964   1.58508   2.30866 
 H                     2.53897   2.48406   2.28955 
 

 GradGradGradGradGradGradGradGradGradGradGradGradGradGradGradGradGradGrad
 Berny optimization.
 Initialization pass.
                           ----------------------------
                           !    Initial Parameters    !
                           ! (Angstroms and Degrees)  !
 --------------------------                            --------------------------
 ! Name  Definition              Value          Derivative Info.                !
 --------------------------------------------------------------------------------
 ! R1    R(1,2)                  1.07           estimate D2E/DX2                !
 ! R2    R(1,3)                  1.07           estimate D2E/DX2                !
 ! R3    R(1,4)                  1.3552         estimate D2E/DX2                !
 ! R4    R(4,5)                  1.07           estimate D2E/DX2                !
 ! R5    R(4,6)                  1.54           estimate D2E/DX2                !
 ! R6    R(6,7)                  1.07           estimate D2E/DX2                !
 ! R7    R(6,8)                  1.3552         estimate D2E/DX2                !
 ! R8    R(8,9)                  1.07           estimate D2E/DX2                !
 ! R9    R(8,10)                 1.54           estimate D2E/DX2                !
 ! R10   R(10,11)                1.07           estimate D2E/DX2                !
 ! R11   R(10,12)                1.3552         estimate D2E/DX2                !
 ! R12   R(12,13)                1.07           estimate D2E/DX2                !
 ! R13   R(12,14)                1.54           estimate D2E/DX2                !
 ! R14   R(14,15)                1.07           estimate D2E/DX2                !
 ! R15   R(14,16)                1.3552         estimate D2E/DX2                !
 ! R16   R(16,17)                1.07           estimate D2E/DX2                !
 ! R17   R(16,18)                1.07           estimate D2E/DX2                !
 ! A1    A(2,1,3)              119.8865         estimate D2E/DX2                !
 ! A2    A(2,1,4)              120.2269         estimate D2E/DX2                !
 ! A3    A(3,1,4)              119.8865         estimate D2E/DX2                !
 ! A4    A(1,4,5)              120.2269         estimate D2E/DX2                !
 ! A5    A(1,4,6)              119.8865         estimate D2E/DX2                !
 ! A6    A(5,4,6)              119.8865         estimate D2E/DX2                !
 ! A7    A(4,6,7)              119.8865         estimate D2E/DX2                !
 ! A8    A(4,6,8)              120.2269         estimate D2E/DX2                !
 ! A9    A(7,6,8)              119.8865         estimate D2E/DX2                !
 ! A10   A(6,8,9)              120.2269         estimate D2E/DX2                !
 ! A11   A(6,8,10)             119.8865         estimate D2E/DX2                !
 ! A12   A(9,8,10)             119.8865         estimate D2E/DX2                !
 ! A13   A(8,10,11)            119.8865         estimate D2E/DX2                !
 ! A14   A(8,10,12)            120.2269         estimate D2E/DX2                !
 ! A15   A(11,10,12)           119.8865         estimate D2E/DX2                !
 ! A16   A(10,12,13)           120.2269         estimate D2E/DX2                !
 ! A17   A(10,12,14)           119.8865         estimate D2E/DX2                !
 ! A18   A(13,12,14)           119.8865         estimate D2E/DX2                !
 ! A19   A(12,14,15)           119.8865         estimate D2E/DX2                !
 ! A20   A(12,14,16)           120.2269         estimate D2E/DX2                !
 ! A21   A(15,14,16)           119.8865         estimate D2E/DX2                !
 ! A22   A(14,16,17)           120.2269         estimate D2E/DX2                !
 ! A23   A(14,16,18)           119.8865         estimate D2E/DX2                !
 ! A24   A(17,16,18)           119.8865         estimate D2E/DX2                !
 ! D1    D(2,1,4,5)            180.0            estimate D2E/DX2                !
 ! D2    D(2,1,4,6)              0.0            estimate D2E/DX2                !
 ! D3    D(3,1,4,5)              0.0            estimate D2E/DX2                !
 ! D4    D(3,1,4,6)            180.0            estimate D2E/DX2                !
 ! D5    D(1,4,6,7)            180.0            estimate D2E/DX2                !
 ! D6    D(1,4,6,8)              0.0            estimate D2E/DX2                !
 ! D7    D(5,4,6,7)              0.0            estimate D2E/DX2                !
 ! D8    D(5,4,6,8)            180.0            estimate D2E/DX2                !
 ! D9    D(4,6,8,9)              0.0            estimate D2E/DX2                !
 ! D10   D(4,6,8,10)           180.0            estimate D2E/DX2                !
 ! D11   D(7,6,8,9)            180.0            estimate D2E/DX2                !
 ! D12   D(7,6,8,10)             0.0            estimate D2E/DX2                !
 ! D13   D(6,8,10,11)            0.0            estimate D2E/DX2                !
 ! D14   D(6,8,10,12)         -180.0            estimate D2E/DX2                !
 ! D15   D(9,8,10,11)          180.0            estimate D2E/DX2                !
 ! D16   D(9,8,10,12)            0.0            estimate D2E/DX2                !
 ! D17   D(8,10,12,13)           0.0            estimate D2E/DX2                !
 ! D18   D(8,10,12,14)         180.0            estimate D2E/DX2                !
 ! D19   D(11,10,12,13)        180.0            estimate D2E/DX2                !
 ! D20   D(11,10,12,14)          0.0            estimate D2E/DX2                !
 ! D21   D(10,12,14,15)        180.0            estimate D2E/DX2                !
 ! D22   D(10,12,14,16)          0.0            estimate D2E/DX2                !
 ! D23   D(13,12,14,15)          0.0            estimate D2E/DX2                !
 ! D24   D(13,12,14,16)       -180.0            estimate D2E/DX2                !
 ! D25   D(12,14,16,17)          0.0            estimate D2E/DX2                !
 ! D26   D(12,14,16,18)       -180.0            estimate D2E/DX2                !
 ! D27   D(15,14,16,17)        180.0            estimate D2E/DX2                !
 ! D28   D(15,14,16,18)          0.0            estimate D2E/DX2                !
 --------------------------------------------------------------------------------
 Trust Radius=3.00D-01 FncErr=1.00D-07 GrdErr=1.00D-06
 Number of steps in this run=     79 maximum allowed number of steps=    108.
 GradGradGradGradGradGradGradGradGradGradGradGradGradGradGradGradGradGrad

                          Input orientation:                          
 ---------------------------------------------------------------------
 Center     Atomic      Atomic             Coordinates (Angstroms)
 Number     Number       Type             X           Y           Z
 ---------------------------------------------------------------------
      1          6           0       -5.864079    2.633859    2.389419
      2          1           0       -5.319967    3.555163    2.383084
      3          1           0       -6.933928    2.646572    2.402133
      4          6           0       -5.202862    1.450941    2.381395
      5          1           0       -5.746974    0.529636    2.387730
      6          6           0       -3.663079    1.432643    2.363096
      7          1           0       -3.141014    0.498669    2.356760
      8          6           0       -2.967018    2.595399    2.354989
      9          1           0       -3.483525    3.532458    2.361259
     10          6           0       -1.427371    2.567952    2.336690
     11          1           0       -0.910864    1.630892    2.330420
     12          6           0       -0.724415    3.726551    2.328501
     13          1           0       -1.235346    4.666663    2.334705
     14          6           0        0.815042    3.689957    2.310203
     15          1           0        1.370062    4.604730    2.303737
     16          6           0        1.469219    2.503131    2.302262
     17          1           0        0.919644    1.585076    2.308663
     18          1           0        2.538974    2.484061    2.289548
 ---------------------------------------------------------------------
                    Distance matrix (angstroms):
                    1          2          3          4          5
     1  C    0.000000
     2  H    1.070000   0.000000
     3  H    1.070000   1.852234   0.000000
     4  C    1.355200   2.107479   2.103938   0.000000
     5  H    2.107479   3.055514   2.427032   1.070000   0.000000
     6  C    2.507591   2.692725   3.489068   1.540000   2.271265
     7  H    3.460518   3.753756   4.359099   2.271265   2.606327
     8  C    2.897521   2.541320   3.967520   2.511867   3.463611
     9  H    2.544663   1.836712   3.562547   2.699859   3.760431
    10  C    4.437510   4.016097   5.507506   3.937517   4.776641
    11  H    5.054083   4.811006   6.108522   4.296070   4.960242
    12  C    5.254887   4.599071   6.303160   5.023712   5.953979
    13  H    5.055735   4.233427   6.046416   5.107273   6.121486
    14  C    6.762564   6.136922   7.819439   6.421325   7.283795
    15  H    7.498297   6.772324   8.532310   7.290798   8.201563
    16  C    7.334981   6.870688   8.404965   6.755000   7.481673
    17  H    6.864791   6.543663   7.925534   6.124406   6.750110
    18  H    8.404981   7.932147   9.474964   7.811004   8.513891
                    6          7          8          9         10
     6  C    0.000000
     7  H    1.070000   0.000000
     8  C    1.355200   2.103938   0.000000
     9  H    2.107479   3.053066   1.070000   0.000000
    10  C    2.507591   2.686802   1.540000   2.271265   0.000000
    11  H    2.759539   2.501238   2.271265   3.199295   1.070000
    12  C    3.728131   4.032366   2.511867   2.766123   1.355200
    13  H    4.043956   4.583038   2.699859   2.518221   2.107479
    14  C    5.015160   5.082997   3.937517   4.301754   2.507591
    15  H    5.949636   6.100193   4.780199   4.970954   3.460518
    16  C    5.243103   5.027434   4.437510   5.058920   2.897521
    17  H    4.585580   4.203752   4.016097   4.814869   2.544663
    18  H    6.290974   6.017355   5.507506   6.113491   3.967512
                   11         12         13         14         15
    11  H    0.000000
    12  C    2.103938   0.000000
    13  H    3.053066   1.070000   0.000000
    14  C    2.686802   1.540000   2.271265   0.000000
    15  H    3.747939   2.271265   2.606327   1.070000   0.000000
    16  C    2.535033   2.511867   3.463611   1.355200   2.103938
    17  H    1.831210   2.699859   3.760431   2.107479   3.053066
    18  H    3.554005   3.492135   4.360193   2.103938   2.421527
                   16         17         18
    16  C    0.000000
    17  H    1.070000   0.000000
    18  H    1.070000   1.852234   0.000000
 Stoichiometry    C8H10
 Framework group  CS[SG(C8H10)]
 Deg. of freedom    33
 Full point group                 CS      NOp   2
 Largest Abelian subgroup         CS      NOp   2
 Largest concise Abelian subgroup C1      NOp   1
                         Standard orientation:                         
 ---------------------------------------------------------------------
 Center     Atomic      Atomic             Coordinates (Angstroms)
 Number     Number       Type             X           Y           Z
 ---------------------------------------------------------------------
      1          6           0       -0.006309    3.669458    0.000000
      2          1           0        0.924548    3.141816    0.000000
      3          1           0       -0.012666    4.739439    0.000000
      4          6           0       -1.177253    2.987215    0.000000
      5          1           0       -2.108109    3.514857    0.000000
      6          6           0       -1.168103    1.447242    0.000000
      7          1           0       -2.092624    0.908576    0.000000
      8          6           0        0.006874    0.771967    0.000000
      9          1           0        0.934579    1.305131    0.000000
     10          6           0        0.006874   -0.768033    0.000000
     11          1           0       -0.920831   -1.301196    0.000000
     12          6           0        1.177818   -1.450276    0.000000
     13          1           0        2.108675   -0.922633    0.000000
     14          6           0        1.168669   -2.990249    0.000000
     15          1           0        2.093189   -3.528915    0.000000
     16          6           0       -0.006309   -3.665523    0.000000
     17          1           0       -0.934014   -3.132359    0.000000
     18          1           0       -0.006309   -4.735523    0.000000
 ---------------------------------------------------------------------
 Rotational constants (GHZ):      8.6271792      0.6963887      0.6443746
 Standard basis: 6-31G(d) (6D, 7F)
 There are   108 symmetry adapted basis functions of A'  symmetry.
 There are    32 symmetry adapted basis functions of A"  symmetry.
 Integral buffers will be    131072 words long.
 Raffenetti 2 integral format.
 Two-electron integral symmetry is turned on.
   140 basis functions,   264 primitive gaussians,   140 cartesian basis functions
    29 alpha electrons       29 beta electrons
       nuclear repulsion energy       301.9421189701 Hartrees.
 NAtoms=   18 NActive=   18 NUniq=   18 SFac= 1.00D+00 NAtFMM=   60 NAOKFM=F Big=F
 One-electron integrals computed using PRISM.
 NBasis=   140 RedAO= T  NBF=   108    32
 NBsUse=   140 1.00D-06 NBFU=   108    32
 Harris functional with IExCor=  402 diagonalized for initial guess.
 ExpMin= 1.61D-01 ExpMax= 3.05D+03 ExpMxC= 4.57D+02 IAcc=1 IRadAn=         1 AccDes= 0.00D+00
 HarFok:  IExCor=  402 AccDes= 0.00D+00 IRadAn=         1 IDoV= 1
 ScaDFX=  1.000000  1.000000  1.000000  1.000000
 FoFCou: FMM=F IPFlag=           0 FMFlag=      100000 FMFlg1=           0
         NFxFlg=           0 DoJE=T BraDBF=F KetDBF=T FulRan=T
         Omega=  0.000000  0.000000  1.000000  0.000000  0.000000 ICntrl=     500 IOpCl=  0
         NMat0=    1 NMatS0=    1 NMatT0=    0 NMatD0=    1 NMtDS0=    0 NMtDT0=    0
         I1Cent=           4 NGrid=           0.
 Petite list used in FoFCou.
 Initial guess orbital symmetries:
       Occupied  (A') (A') (A') (A') (A') (A') (A') (A') (A') (A')
                 (A') (A') (A') (A') (A') (A') (A') (A') (A') (A')
                 (A') (A') (A') (A') (A') (A") (A") (A") (A")
       Virtual   (A") (A") (A") (A") (A') (A') (A') (A') (A') (A')
                 (A') (A') (A') (A') (A') (A') (A') (A') (A') (A')
                 (A') (A') (A') (A") (A") (A') (A') (A') (A") (A")
                 (A') (A') (A') (A") (A') (A') (A") (A") (A") (A')
                 (A') (A') (A') (A') (A') (A') (A') (A') (A') (A')
                 (A') (A') (A') (A') (A') (A') (A') (A') (A') (A')
                 (A") (A") (A") (A') (A") (A") (A") (A') (A') (A")
                 (A") (A") (A') (A') (A') (A') (A') (A') (A') (A")
                 (A') (A") (A') (A') (A') (A") (A') (A') (A") (A')
                 (A") (A') (A") (A") (A') (A') (A') (A') (A') (A')
                 (A') (A') (A') (A') (A') (A') (A') (A') (A') (A')
                 (A')
 The electronic state of the initial guess is 1-A'.
 Requested convergence on RMS density matrix=1.00D-08 within 128 cycles.
 Requested convergence on MAX density matrix=1.00D-06.
 Requested convergence on             energy=1.00D-06.
 No special actions if energy rises.
 Integral accuracy reduced to 1.0D-05 until final iterations.
 Initial convergence to 1.0D-05 achieved.  Increase integral accuracy.
 SCF Done:  E(RB3LYP) =  -310.768827692     A.U. after   14 cycles
             Convg  =    0.2034D-08             -V/T =  2.0107

 **********************************************************************

            Population analysis using the SCF density.

 **********************************************************************

 Orbital symmetries:
       Occupied  (A') (A') (A') (A') (A') (A') (A') (A') (A') (A')
                 (A') (A') (A') (A') (A') (A') (A') (A') (A') (A')
                 (A') (A') (A') (A') (A') (A") (A") (A") (A")
       Virtual   (A") (A") (A") (A') (A") (A') (A') (A') (A') (A')
                 (A') (A') (A') (A') (A') (A') (A') (A') (A') (A')
                 (A') (A') (A') (A") (A") (A') (A') (A") (A') (A')
                 (A") (A') (A") (A') (A") (A') (A') (A") (A") (A')
                 (A') (A') (A') (A') (A') (A') (A') (A') (A') (A')
                 (A') (A') (A') (A') (A') (A') (A') (A') (A') (A')
                 (A") (A") (A') (A") (A") (A") (A') (A") (A') (A")
                 (A") (A") (A') (A') (A') (A') (A') (A') (A') (A")
                 (A') (A") (A') (A') (A') (A") (A') (A') (A") (A')
                 (A") (A') (A") (A") (A') (A') (A') (A') (A') (A')
                 (A') (A') (A') (A') (A') (A') (A') (A') (A') (A')
                 (A')
 The electronic state is 1-A'.
 Alpha  occ. eigenvalues --  -10.19690 -10.19661 -10.19570 -10.19547 -10.19379
 Alpha  occ. eigenvalues --  -10.19367 -10.17919 -10.17888  -0.81207  -0.78838
 Alpha  occ. eigenvalues --   -0.74309  -0.70073  -0.62165  -0.59616  -0.54292
 Alpha  occ. eigenvalues --   -0.52996  -0.49434  -0.46289  -0.44417  -0.42429
 Alpha  occ. eigenvalues --   -0.40460  -0.37711  -0.36550  -0.36101  -0.33516
 Alpha  occ. eigenvalues --   -0.33256  -0.30217  -0.25232  -0.19823
 Alpha virt. eigenvalues --   -0.05179   0.00247   0.07469   0.09526   0.10408
 Alpha virt. eigenvalues --    0.11532   0.12539   0.12841   0.16681   0.16725
 Alpha virt. eigenvalues --    0.18388   0.19698   0.22231   0.22508   0.28237
 Alpha virt. eigenvalues --    0.30020   0.31594   0.34909   0.35339   0.43617
 Alpha virt. eigenvalues --    0.45365   0.49263   0.50484   0.52236   0.53788
 Alpha virt. eigenvalues --    0.56713   0.57544   0.58740   0.59096   0.60407
 Alpha virt. eigenvalues --    0.60838   0.62945   0.64369   0.65674   0.66142
 Alpha virt. eigenvalues --    0.67359   0.67613   0.68020   0.73236   0.83006
 Alpha virt. eigenvalues --    0.84477   0.85853   0.86179   0.89374   0.90455
 Alpha virt. eigenvalues --    0.90860   0.91566   0.93393   0.95452   0.98139
 Alpha virt. eigenvalues --    0.99965   1.03350   1.04150   1.07859   1.07989
 Alpha virt. eigenvalues --    1.12933   1.13529   1.22263   1.22435   1.28895
 Alpha virt. eigenvalues --    1.34094   1.34358   1.37351   1.37990   1.47894
 Alpha virt. eigenvalues --    1.48348   1.49298   1.51001   1.52592   1.61386
 Alpha virt. eigenvalues --    1.69208   1.71394   1.74208   1.75788   1.77493
 Alpha virt. eigenvalues --    1.95108   1.95351   1.96336   1.97700   1.98469
 Alpha virt. eigenvalues --    2.05290   2.13355   2.15319   2.16935   2.20018
 Alpha virt. eigenvalues --    2.20440   2.23920   2.27897   2.30038   2.30276
 Alpha virt. eigenvalues --    2.34778   2.46240   2.46515   2.48572   2.57578
 Alpha virt. eigenvalues --    2.58008   2.62381   2.70371   2.80387   2.84567
 Alpha virt. eigenvalues --    2.92768   3.01221   3.05952   4.05173   4.06542
 Alpha virt. eigenvalues --    4.10928   4.17067   4.18357   4.31326   4.43511
 Alpha virt. eigenvalues --    4.51777
          Condensed to atoms (all electrons):
              1          2          3          4          5          6
     1  C    5.051040   0.363766   0.367603   0.653332  -0.054010  -0.038419
     2  H    0.363766   0.565364  -0.040072  -0.030716   0.006137  -0.018774
     3  H    0.367603  -0.040072   0.556283  -0.025639  -0.006551   0.004477
     4  C    0.653332  -0.030716  -0.025639   4.802861   0.366089   0.401161
     5  H   -0.054010   0.006137  -0.006551   0.366089   0.592935  -0.039396
     6  C   -0.038419  -0.018774   0.004477   0.401161  -0.039396   4.938908
     7  H    0.004920  -0.000015  -0.000125  -0.042494  -0.003381   0.364332
     8  C   -0.021909   0.005272   0.000273  -0.022270   0.004244   0.610098
     9  H    0.003712   0.005305  -0.000023  -0.013316   0.000003  -0.049993
    10  C    0.000518   0.000210  -0.000009   0.003344  -0.000088  -0.018119
    11  H   -0.000002   0.000003   0.000000   0.000072   0.000000  -0.003936
    12  C    0.000016  -0.000017   0.000000  -0.000183   0.000001   0.002680
    13  H   -0.000004  -0.000001   0.000000  -0.000004   0.000000   0.000438
    14  C    0.000000   0.000000   0.000000   0.000001   0.000000  -0.000183
    15  H    0.000000   0.000000   0.000000   0.000000   0.000000   0.000001
    16  C    0.000000   0.000000   0.000000   0.000000   0.000000   0.000016
    17  H    0.000000   0.000000   0.000000   0.000000   0.000000  -0.000017
    18  H    0.000000   0.000000   0.000000   0.000000   0.000000   0.000000
              7          8          9         10         11         12
     1  C    0.004920  -0.021909   0.003712   0.000518  -0.000002   0.000016
     2  H   -0.000015   0.005272   0.005305   0.000210   0.000003  -0.000017
     3  H   -0.000125   0.000273  -0.000023  -0.000009   0.000000   0.000000
     4  C   -0.042494  -0.022270  -0.013316   0.003344   0.000072  -0.000183
     5  H   -0.003381   0.004244   0.000003  -0.000088   0.000000   0.000001
     6  C    0.364332   0.610098  -0.049993  -0.018119  -0.003936   0.002680
     7  H    0.599652  -0.055621   0.006305  -0.008811   0.004089   0.000458
     8  C   -0.055621   4.889371   0.356746   0.405611  -0.043017  -0.018594
     9  H    0.006305   0.356746   0.599727  -0.042881   0.003672  -0.003876
    10  C   -0.008811   0.405611  -0.042881   4.889345   0.356658   0.609999
    11  H    0.004089  -0.043017   0.003672   0.356658   0.600389  -0.050104
    12  C    0.000458  -0.018594  -0.003876   0.609999  -0.050104   4.938932
    13  H    0.000014  -0.008662   0.003986  -0.055455   0.006311   0.364426
    14  C   -0.000005   0.003367   0.000067  -0.021929  -0.013677   0.401164
    15  H    0.000000  -0.000090   0.000000   0.004237   0.000011  -0.039439
    16  C   -0.000004   0.000521  -0.000001  -0.021923   0.003909  -0.038458
    17  H    0.000000   0.000209   0.000003   0.004999   0.005369  -0.018547
    18  H    0.000000  -0.000009   0.000000   0.000274  -0.000024   0.004453
             13         14         15         16         17         18
     1  C   -0.000004   0.000000   0.000000   0.000000   0.000000   0.000000
     2  H   -0.000001   0.000000   0.000000   0.000000   0.000000   0.000000
     3  H    0.000000   0.000000   0.000000   0.000000   0.000000   0.000000
     4  C   -0.000004   0.000001   0.000000   0.000000   0.000000   0.000000
     5  H    0.000000   0.000000   0.000000   0.000000   0.000000   0.000000
     6  C    0.000438  -0.000183   0.000001   0.000016  -0.000017   0.000000
     7  H    0.000014  -0.000005   0.000000  -0.000004   0.000000   0.000000
     8  C   -0.008662   0.003367  -0.000090   0.000521   0.000209  -0.000009
     9  H    0.003986   0.000067   0.000000  -0.000001   0.000003   0.000000
    10  C   -0.055455  -0.021929   0.004237  -0.021923   0.004999   0.000274
    11  H    0.006311  -0.013677   0.000011   0.003909   0.005369  -0.000024
    12  C    0.364426   0.401164  -0.039439  -0.038458  -0.018547   0.004453
    13  H    0.599299  -0.042481  -0.003380   0.004899  -0.000024  -0.000122
    14  C   -0.042481   4.803292   0.365966   0.653601  -0.030959  -0.025484
    15  H   -0.003380   0.365966   0.593801  -0.054155   0.006188  -0.006659
    16  C    0.004899   0.653601  -0.054155   5.051271   0.363645   0.367701
    17  H   -0.000024  -0.030959   0.006188   0.363645   0.565853  -0.040070
    18  H   -0.000122  -0.025484  -0.006659   0.367701  -0.040070   0.556169
 Mulliken atomic charges:
              1
     1  C   -0.330563
     2  H    0.143537
     3  H    0.143782
     4  C   -0.092239
     5  H    0.134017
     6  C   -0.153273
     7  H    0.130686
     8  C   -0.105541
     9  H    0.130565
    10  C   -0.105981
    11  H    0.130277
    12  C   -0.152910
    13  H    0.130759
    14  C   -0.092739
    15  H    0.133520
    16  C   -0.331022
    17  H    0.143354
    18  H    0.143771
 Sum of Mulliken atomic charges =   0.00000
 Mulliken charges with hydrogens summed into heavy atoms:
              1
     1  C   -0.043243
     4  C    0.041778
     6  C   -0.022587
     8  C    0.025024
    10  C    0.024296
    12  C   -0.022151
    14  C    0.040781
    16  C   -0.043897
 Sum of Mulliken charges with hydrogens summed into heavy atoms =   0.00000
 Electronic spatial extent (au):  <R**2>=           1710.0728
 Charge=              0.0000 electrons
 Dipole moment (field-independent basis, Debye):
    X=             -0.0018    Y=              0.0170    Z=              0.0000  Tot=              0.0171
 Quadrupole moment (field-independent basis, Debye-Ang):
   XX=            -42.8417   YY=            -44.4868   ZZ=            -53.8806
   XY=             -0.4710   XZ=              0.0000   YZ=              0.0000
 Traceless Quadrupole moment (field-independent basis, Debye-Ang):
   XX=              4.2280   YY=              2.5829   ZZ=             -6.8109
   XY=             -0.4710   XZ=              0.0000   YZ=              0.0000
 Octapole moment (field-independent basis, Debye-Ang**2):
  XXX=             -0.0060  YYY=              0.1258  ZZZ=              0.0000  XYY=             -0.0331
  XXY=              0.0797  XXZ=              0.0000  XZZ=             -0.0012  YZZ=              0.0160
  YYZ=              0.0000  XYZ=              0.0000
 Hexadecapole moment (field-independent basis, Debye-Ang**3):
 XXXX=           -280.9327 YYYY=          -1836.8770 ZZZZ=            -56.1241 XXXY=            158.1947
 XXXZ=              0.0000 YYYX=            152.2805 YYYZ=              0.0000 ZZZX=              0.0000
 ZZZY=              0.0000 XXYY=           -351.7458 XXZZ=            -64.4222 YYZZ=           -384.8799
 XXYZ=              0.0000 YYXZ=              0.0000 ZZXY=             67.4575
 N-N= 3.019421189701D+02 E-N=-1.322298117057D+03  KE= 3.074709065533D+02
 Symmetry A'   KE= 2.990083292438D+02
 Symmetry A"   KE= 8.462577309441D+00
 Calling FoFJK, ICntrl=      2127 FMM=F ISym2X=1 I1Cent= 0 IOpClX= 0 NMat=1 NMatS=1 NMatT=0.
 ***** Axes restored to original set *****
 -------------------------------------------------------------------
 Center     Atomic                   Forces (Hartrees/Bohr)
 Number     Number              X              Y              Z
 -------------------------------------------------------------------
      1        6           0.006205024   -0.033551116   -0.000078469
      2        1          -0.002692856    0.011115872    0.000033568
      3        1          -0.011060326    0.004285419    0.000132030
      4        6           0.037141322    0.030966478   -0.000436962
      5        1          -0.003161075   -0.011796849    0.000035896
      6        6          -0.043597880    0.023555590    0.000521382
      7        1           0.003106499   -0.011700960   -0.000038566
      8        6           0.058895716   -0.039850048   -0.000705461
      9        1           0.003472704    0.011715315   -0.000039610
     10        6          -0.058588375    0.040144360    0.000701850
     11        1          -0.003826554   -0.011853060    0.000043796
     12        6           0.043605221   -0.024678663   -0.000521628
     13        1          -0.003150761    0.011551963    0.000039070
     14        6          -0.036474850   -0.029648589    0.000429229
     15        1           0.003088212    0.012022862   -0.000034998
     16        6          -0.006646866    0.033240157    0.000083676
     17        1           0.002702186   -0.011230906   -0.000033695
     18        1           0.010982659   -0.004287825   -0.000131108
 -------------------------------------------------------------------
 Cartesian Forces:  Max     0.058895716 RMS     0.020804050

 GradGradGradGradGradGradGradGradGradGradGradGradGradGradGradGradGradGrad
 Berny optimization.
 Internal  Forces:  Max     0.048579150 RMS     0.013412728
 Search for a local minimum.
 Step number   1 out of a maximum of   79
 All quantities printed in internal units (Hartrees-Bohrs-Radians)
 Mixed Optimization -- RFO/linear search
 Second derivative matrix not updated -- first step.
 ITU=  0
     Eigenvalues ---    0.00237   0.00237   0.00237   0.01459   0.01459
     Eigenvalues ---    0.01459   0.01463   0.01463   0.01463   0.02681
     Eigenvalues ---    0.02681   0.02681   0.02681   0.02681   0.02681
     Eigenvalues ---    0.16000   0.16000   0.16000   0.16000   0.16000
     Eigenvalues ---    0.16000   0.16000   0.16000   0.16000   0.16000
     Eigenvalues ---    0.22000   0.22000   0.22000   0.22000   0.22000
     Eigenvalues ---    0.22000   0.28519   0.28519   0.28519   0.37230
     Eigenvalues ---    0.37230   0.37230   0.37230   0.37230   0.37230
     Eigenvalues ---    0.37230   0.37230   0.37230   0.37230   0.53930
     Eigenvalues ---    0.53930   0.53930   0.53930
 RFO step:  Lambda=-4.29425461D-02 EMin= 2.36824080D-03
 Linear search not attempted -- first point.
 Maximum step size (   0.300) exceeded in Quadratic search.
    -- Step size scaled by   0.765
 Iteration  1 RMS(Cart)=  0.14500261 RMS(Int)=  0.00554478
 Iteration  2 RMS(Cart)=  0.00766190 RMS(Int)=  0.00001074
 Iteration  3 RMS(Cart)=  0.00002993 RMS(Int)=  0.00000001
 Iteration  4 RMS(Cart)=  0.00000001 RMS(Int)=  0.00000001
 ClnCor:  largest displacement from symmetrization is 2.81D-08 for atom    15.
 Variable       Old X    -DE/DX   Delta X   Delta X   Delta X     New X
                                 (Linear)    (Quad)   (Total)
    R1        2.02201   0.00820   0.00000   0.01512   0.01512   2.03712
    R2        2.02201   0.01111   0.00000   0.02048   0.02048   2.04249
    R3        2.56096  -0.01216   0.00000  -0.01599  -0.01599   2.54496
    R4        2.02201   0.01177   0.00000   0.02169   0.02169   2.04370
    R5        2.91018  -0.02642   0.00000  -0.06164  -0.06164   2.84854
    R6        2.02201   0.01173   0.00000   0.02162   0.02162   2.04363
    R7        2.56096  -0.00382   0.00000  -0.00502  -0.00502   2.55594
    R8        2.02201   0.00858   0.00000   0.01582   0.01582   2.03783
    R9        2.91018  -0.04858   0.00000  -0.11333  -0.11333   2.79685
   R10        2.02201   0.00853   0.00000   0.01573   0.01573   2.03774
   R11        2.56096  -0.00382   0.00000  -0.00502  -0.00502   2.55594
   R12        2.02201   0.01166   0.00000   0.02149   0.02149   2.04349
   R13        2.91018  -0.02635   0.00000  -0.06146  -0.06146   2.84872
   R14        2.02201   0.01188   0.00000   0.02190   0.02190   2.04391
   R15        2.56096  -0.01213   0.00000  -0.01594  -0.01594   2.54501
   R16        2.02201   0.00825   0.00000   0.01520   0.01520   2.03721
   R17        2.02201   0.01106   0.00000   0.02039   0.02039   2.04239
    A1        2.09241  -0.00817   0.00000  -0.03082  -0.03082   2.06159
    A2        2.09836   0.00795   0.00000   0.02998   0.02998   2.12833
    A3        2.09241   0.00022   0.00000   0.00084   0.00084   2.09326
    A4        2.09836  -0.01355   0.00000  -0.03660  -0.03660   2.06176
    A5        2.09241   0.03373   0.00000   0.09821   0.09821   2.19062
    A6        2.09241  -0.02018   0.00000  -0.06161  -0.06161   2.03081
    A7        2.09241  -0.01871   0.00000  -0.05707  -0.05707   2.03535
    A8        2.09836   0.03135   0.00000   0.09128   0.09128   2.18964
    A9        2.09241  -0.01265   0.00000  -0.03421  -0.03421   2.05820
   A10        2.09836   0.00459   0.00000   0.02093   0.02093   2.11929
   A11        2.09241   0.00840   0.00000   0.02446   0.02446   2.11687
   A12        2.09241  -0.01299   0.00000  -0.04539  -0.04539   2.04702
   A13        2.09241  -0.01296   0.00000  -0.04562  -0.04562   2.04679
   A14        2.09836   0.00757   0.00000   0.02205   0.02205   2.12041
   A15        2.09241   0.00539   0.00000   0.02357   0.02357   2.11599
   A16        2.09836  -0.01348   0.00000  -0.03685  -0.03685   2.06151
   A17        2.09241   0.03251   0.00000   0.09465   0.09465   2.18706
   A18        2.09241  -0.01903   0.00000  -0.05780  -0.05780   2.03461
   A19        2.09241  -0.02011   0.00000  -0.06168  -0.06168   2.03073
   A20        2.09836   0.03295   0.00000   0.09593   0.09593   2.19428
   A21        2.09241  -0.01284   0.00000  -0.03424  -0.03424   2.05817
   A22        2.09836   0.00815   0.00000   0.03072   0.03072   2.12908
   A23        2.09241   0.00006   0.00000   0.00023   0.00023   2.09265
   A24        2.09241  -0.00821   0.00000  -0.03096  -0.03096   2.06146
    D1        3.14159   0.00000   0.00000   0.00000   0.00000   3.14159
    D2        0.00000   0.00000   0.00000   0.00000   0.00000   0.00000
    D3        0.00000   0.00000   0.00000   0.00000   0.00000   0.00000
    D4        3.14159   0.00000   0.00000   0.00000   0.00000   3.14159
    D5        3.14159   0.00000   0.00000   0.00000   0.00000   3.14159
    D6        0.00000   0.00000   0.00000   0.00000   0.00000   0.00000
    D7        0.00000   0.00000   0.00000   0.00000   0.00000   0.00000
    D8       -3.14159   0.00000   0.00000   0.00000   0.00000   3.14159
    D9        0.00000   0.00000   0.00000   0.00000   0.00000   0.00000
   D10        3.14159   0.00000   0.00000   0.00000   0.00000   3.14159
   D11        3.14159   0.00000   0.00000   0.00000   0.00000   3.14159
   D12        0.00000   0.00000   0.00000   0.00000   0.00000   0.00000
   D13        0.00000   0.00000   0.00000   0.00000   0.00000   0.00000
   D14        3.14159   0.00000   0.00000   0.00000   0.00000   3.14159
   D15        3.14159   0.00000   0.00000   0.00000   0.00000   3.14159
   D16        0.00000   0.00000   0.00000   0.00000   0.00000   0.00000
   D17        0.00000   0.00000   0.00000   0.00000   0.00000   0.00000
   D18        3.14159   0.00000   0.00000   0.00000   0.00000   3.14159
   D19        3.14159   0.00000   0.00000   0.00000   0.00000   3.14159
   D20        0.00000   0.00000   0.00000   0.00000   0.00000   0.00000
   D21       -3.14159   0.00000   0.00000   0.00000   0.00000   3.14159
   D22        0.00000   0.00000   0.00000   0.00000   0.00000   0.00000
   D23        0.00000   0.00000   0.00000   0.00000   0.00000   0.00000
   D24        3.14159   0.00000   0.00000   0.00000   0.00000   3.14159
   D25        0.00000   0.00000   0.00000   0.00000   0.00000   0.00000
   D26        3.14159   0.00000   0.00000   0.00000   0.00000   3.14159
   D27        3.14159   0.00000   0.00000   0.00000   0.00000   3.14159
   D28        0.00000   0.00000   0.00000   0.00000   0.00000   0.00000
         Item               Value     Threshold  Converged?
 Maximum Force            0.048579     0.000450     NO 
 RMS     Force            0.013413     0.000300     NO 
 Maximum Displacement     0.539176     0.001800     NO 
 RMS     Displacement     0.145828     0.001200     NO 
 Predicted change in Energy=-2.222287D-02
 GradGradGradGradGradGradGradGradGradGradGradGradGradGradGradGradGradGrad

                          Input orientation:                          
 ---------------------------------------------------------------------
 Center     Atomic      Atomic             Coordinates (Angstroms)
 Number     Number       Type             X           Y           Z
 ---------------------------------------------------------------------
      1          6           0       -6.008760    2.615191    2.391135
      2          1           0       -5.598464    3.612045    2.386401
      3          1           0       -7.084090    2.506948    2.403898
      4          6           0       -5.223275    1.521288    2.381647
      5          1           0       -5.700512    0.550819    2.387181
      6          6           0       -3.716005    1.525733    2.363738
      7          1           0       -3.228684    0.560330    2.357811
      8          6           0       -2.934713    2.629760    2.354610
      9          1           0       -3.360980    3.620294    2.359815
     10          6           0       -1.458393    2.526519    2.337053
     11          1           0       -1.032375    1.535932    2.331851
     12          6           0       -0.673204    3.627779    2.327878
     13          1           0       -1.153880    4.596426    2.333727
     14          6           0        0.834157    3.623018    2.309966
     15          1           0        1.317289    4.590690    2.304362
     16          6           0        1.616974    2.527172    2.300510
     17          1           0        1.204963    1.530977    2.305265
     18          1           0        2.692450    2.633432    2.287745
 ---------------------------------------------------------------------
                    Distance matrix (angstroms):
                    1          2          3          4          5
     1  C    0.000000
     2  H    1.077999   0.000000
     3  H    1.080839   1.851656   0.000000
     4  C    1.346737   2.124160   2.105861   0.000000
     5  H    2.087262   3.062926   2.396039   1.081478   0.000000
     6  C    2.538582   2.810136   3.508332   1.507383   2.211170
     7  H    3.457223   3.863889   4.319213   2.214137   2.472021
     8  C    3.074299   2.839271   4.151487   2.543021   3.460159
     9  H    2.832305   2.237657   3.886261   2.806144   3.859512
    10  C    4.551552   4.280302   5.626127   3.897026   4.679901
    11  H    5.092418   5.016212   6.129544   4.191221   4.771269
    12  C    5.431159   4.925632   6.508571   5.014313   5.894490
    13  H    5.243897   4.552594   6.287944   5.100858   6.086186
    14  C    6.917211   6.433084   7.997066   6.412089   7.221237
    15  H    7.588223   6.985135   8.656504   7.225385   8.097960
    16  C    7.626781   7.297045   8.701702   6.914289   7.580177
    17  H    7.295252   7.115057   8.346894   6.428699   6.975171
    18  H    8.701843   8.349051   9.778047   7.994021   8.648062
                    6          7          8          9         10
     6  C    0.000000
     7  H    1.081443   0.000000
     8  C    1.352545   2.090208   0.000000
     9  H    2.124440   3.062823   1.078373   0.000000
    10  C    2.469634   2.645800   1.480029   2.194697   0.000000
    11  H    2.683838   2.403381   2.194508   3.125340   1.078324
    12  C    3.698448   3.992569   2.472079   2.687976   1.352545
    13  H    3.999318   4.538223   2.653221   2.413464   2.092189
    14  C    5.010536   5.088125   3.897811   4.195434   2.541423
    15  H    5.893347   6.075568   4.682659   4.778174   3.459232
    16  C    5.426559   5.229928   4.553164   5.096907   3.075585
    17  H    4.921318   4.538958   4.283302   5.021559   2.843516
    18  H    6.503927   6.273953   5.627561   6.133767   4.152513
                   11         12         13         14         15
    11  H    0.000000
    12  C    2.122462   0.000000
    13  H    3.062906   1.081370   0.000000
    14  C    2.800062   1.507475   2.213680   0.000000
    15  H    3.853989   2.211293   2.471350   1.081591   0.000000
    16  C    2.828885   2.541064   3.458403   1.346763   2.085170
    17  H    2.237502   2.815067   3.868065   2.124654   3.061775
    18  H    3.883397   3.509696   4.318531   2.105475   2.392112
                   16         17         18
    16  C    0.000000
    17  H    1.078045   0.000000
    18  H    1.080787   1.851575   0.000000
 Stoichiometry    C8H10
 Framework group  CS[SG(C8H10)]
 Deg. of freedom    33
 Full point group                 CS      NOp   2
 Largest Abelian subgroup         CS      NOp   2
 Largest concise Abelian subgroup C1      NOp   1
                         Standard orientation:                         
 ---------------------------------------------------------------------
 Center     Atomic      Atomic             Coordinates (Angstroms)
 Number     Number       Type             X           Y           Z
 ---------------------------------------------------------------------
      1          6           0       -0.206735    3.808406    0.000000
      2          1           0        0.814638    3.463616    0.000000
      3          1           0       -0.384516    4.874523    0.000000
      4          6           0       -1.247373    2.953552    0.000000
      5          1           0       -2.246759    3.366858    0.000000
      6          6           0       -1.145148    1.449640    0.000000
      7          1           0       -2.076900    0.900680    0.000000
      8          6           0        0.007242    0.741563    0.000000
      9          1           0        0.968034    1.231223    0.000000
     10          6           0        0.000000   -0.738449    0.000000
     11          1           0       -0.960861   -1.227864    0.000000
     12          6           0        1.149882   -1.450594    0.000000
     13          1           0        2.085303   -0.908056    0.000000
     14          6           0        1.242926   -2.955195    0.000000
     15          1           0        2.239905   -3.374566    0.000000
     16          6           0        0.200176   -3.807512    0.000000
     17          1           0       -0.820651   -3.460969    0.000000
     18          1           0        0.375988   -4.873904    0.000000
 ---------------------------------------------------------------------
 Rotational constants (GHZ):      9.5067234      0.6651599      0.6216638
 Standard basis: 6-31G(d) (6D, 7F)
 There are   108 symmetry adapted basis functions of A'  symmetry.
 There are    32 symmetry adapted basis functions of A"  symmetry.
 Integral buffers will be    131072 words long.
 Raffenetti 2 integral format.
 Two-electron integral symmetry is turned on.
   140 basis functions,   264 primitive gaussians,   140 cartesian basis functions
    29 alpha electrons       29 beta electrons
       nuclear repulsion energy       300.5719201157 Hartrees.
 NAtoms=   18 NActive=   18 NUniq=   18 SFac= 1.00D+00 NAtFMM=   60 NAOKFM=F Big=F
 One-electron integrals computed using PRISM.
 NBasis=   140 RedAO= T  NBF=   108    32
 NBsUse=   140 1.00D-06 NBFU=   108    32
 Initial guess read from the read-write file.
 B after Tr=     0.000000    0.000000    0.000000
         Rot=    1.000000    0.000000    0.000000    0.000000 Ang=   0.00 deg.
 Initial guess orbital symmetries:
       Occupied  (A') (A') (A') (A') (A') (A') (A') (A') (A') (A')
                 (A') (A') (A') (A') (A') (A') (A') (A') (A') (A')
                 (A') (A') (A') (A') (A') (A") (A") (A") (A")
       Virtual   (A") (A") (A") (A') (A") (A') (A') (A') (A') (A')
                 (A') (A') (A') (A') (A') (A') (A') (A') (A') (A')
                 (A') (A') (A') (A") (A") (A') (A') (A") (A') (A')
                 (A") (A') (A") (A') (A") (A') (A') (A") (A") (A')
                 (A') (A') (A') (A') (A') (A') (A') (A') (A') (A')
                 (A') (A') (A') (A') (A') (A') (A') (A') (A') (A')
                 (A") (A") (A') (A") (A") (A") (A') (A") (A') (A")
                 (A") (A") (A') (A') (A') (A') (A') (A') (A') (A")
                 (A') (A") (A') (A') (A') (A") (A') (A') (A") (A')
                 (A") (A') (A") (A") (A') (A') (A') (A') (A') (A')
                 (A') (A') (A') (A') (A') (A') (A') (A') (A') (A')
                 (A')
 Harris functional with IExCor=  402 diagonalized for initial guess.
 ExpMin= 1.61D-01 ExpMax= 3.05D+03 ExpMxC= 4.57D+02 IAcc=1 IRadAn=         1 AccDes= 0.00D+00
 HarFok:  IExCor=  402 AccDes= 0.00D+00 IRadAn=         1 IDoV= 1
 ScaDFX=  1.000000  1.000000  1.000000  1.000000
 FoFCou: FMM=F IPFlag=           0 FMFlag=      100000 FMFlg1=           0
         NFxFlg=           0 DoJE=T BraDBF=F KetDBF=T FulRan=T
         Omega=  0.000000  0.000000  1.000000  0.000000  0.000000 ICntrl=     500 IOpCl=  0
         NMat0=    1 NMatS0=    1 NMatT0=    0 NMatD0=    1 NMtDS0=    0 NMtDT0=    0
         I1Cent=           4 NGrid=           0.
 Petite list used in FoFCou.
 Requested convergence on RMS density matrix=1.00D-08 within 128 cycles.
 Requested convergence on MAX density matrix=1.00D-06.
 Requested convergence on             energy=1.00D-06.
 No special actions if energy rises.
 Integral accuracy reduced to 1.0D-05 until final iterations.
 Initial convergence to 1.0D-05 achieved.  Increase integral accuracy.
 SCF Done:  E(RB3LYP) =  -310.789443036     A.U. after   13 cycles
             Convg  =    0.4733D-08             -V/T =  2.0106
 Calling FoFJK, ICntrl=      2127 FMM=F ISym2X=1 I1Cent= 0 IOpClX= 0 NMat=1 NMatS=1 NMatT=0.
 ***** Axes restored to original set *****
 -------------------------------------------------------------------
 Center     Atomic                   Forces (Hartrees/Bohr)
 Number     Number              X              Y              Z
 -------------------------------------------------------------------
      1        6           0.004634194   -0.013569932   -0.000056982
      2        1          -0.000001299    0.006089589    0.000000875
      3        1          -0.003540315    0.002230944    0.000042383
      4        6           0.023503408    0.011131321   -0.000277710
      5        1          -0.000058516   -0.005267022   -0.000000048
      6        6          -0.029508071    0.007964365    0.000351757
      7        1           0.000522858   -0.005135883   -0.000006938
      8        6           0.026230623   -0.018852701   -0.000314350
      9        1          -0.002103338    0.006231875    0.000025873
     10        6          -0.025981971    0.018996057    0.000311416
     11        1           0.001981751   -0.006342953   -0.000024444
     12        6           0.029622851   -0.008403227   -0.000353183
     13        1          -0.000671176    0.005070119    0.000008691
     14        6          -0.023117204   -0.010513267    0.000273208
     15        1          -0.000101049    0.005346986    0.000001956
     16        6          -0.004951991    0.013346082    0.000060727
     17        1          -0.000016668   -0.006085697   -0.000000661
     18        1           0.003555913   -0.002236657   -0.000042569
 -------------------------------------------------------------------
 Cartesian Forces:  Max     0.029622851 RMS     0.010538848

 GradGradGradGradGradGradGradGradGradGradGradGradGradGradGradGradGradGrad
 Berny optimization.
 Using GEDIIS/GDIIS optimizer.
 Internal  Forces:  Max     0.024631487 RMS     0.005726050
 Search for a local minimum.
 Step number   2 out of a maximum of   79
 All quantities printed in internal units (Hartrees-Bohrs-Radians)
 Mixed Optimization -- RFO/linear search
 Update second derivatives using D2CorX and points    1    2
 DE= -2.06D-02 DEPred=-2.22D-02 R= 9.28D-01
 SS=  1.41D+00  RLast= 3.00D-01 DXNew= 5.0454D-01 9.0000D-01
 Trust test= 9.28D-01 RLast= 3.00D-01 DXMaxT set to 5.05D-01
 ITU=  1  0
 Use linear search instead of GDIIS.
     Eigenvalues ---    0.00237   0.00237   0.00237   0.01474   0.01476
     Eigenvalues ---    0.01476   0.01479   0.01506   0.01509   0.02681
     Eigenvalues ---    0.02681   0.02681   0.02681   0.02681   0.02681
     Eigenvalues ---    0.15426   0.16000   0.16000   0.16000   0.16000
     Eigenvalues ---    0.16000   0.16000   0.16000   0.16000   0.16336
     Eigenvalues ---    0.19390   0.22000   0.22000   0.22000   0.22000
     Eigenvalues ---    0.23227   0.27401   0.28519   0.34325   0.36612
     Eigenvalues ---    0.37230   0.37230   0.37230   0.37230   0.37230
     Eigenvalues ---    0.37230   0.37230   0.37230   0.38423   0.53778
     Eigenvalues ---    0.53930   0.53930   0.54008
 RFO step:  Lambda=-8.73648761D-03 EMin= 2.36824080D-03
 Quartic linear search produced a step of  0.65061.
 Iteration  1 RMS(Cart)=  0.05468274 RMS(Int)=  0.00116445
 Iteration  2 RMS(Cart)=  0.00187682 RMS(Int)=  0.00000068
 Iteration  3 RMS(Cart)=  0.00000100 RMS(Int)=  0.00000001
 Iteration  4 RMS(Cart)=  0.00000001 RMS(Int)=  0.00000001
 ClnCor:  largest displacement from symmetrization is 1.74D-07 for atom    15.
 Variable       Old X    -DE/DX   Delta X   Delta X   Delta X     New X
                                 (Linear)    (Quad)   (Total)
    R1        2.03712   0.00563   0.00983   0.01614   0.02597   2.06310
    R2        2.04249   0.00330   0.01333   0.00317   0.01650   2.05899
    R3        2.54496  -0.00490  -0.01040  -0.00576  -0.01617   2.52880
    R4        2.04370   0.00475   0.01411   0.00879   0.02290   2.06660
    R5        2.84854  -0.02454  -0.04010  -0.10511  -0.14521   2.70333
    R6        2.04363   0.00482   0.01407   0.00912   0.02319   2.06682
    R7        2.55594  -0.00025  -0.00326   0.00207  -0.00120   2.55474
    R8        2.03783   0.00656   0.01029   0.01975   0.03004   2.06787
    R9        2.79685  -0.02027  -0.07373  -0.05424  -0.12798   2.66887
   R10        2.03774   0.00661   0.01023   0.02003   0.03026   2.06800
   R11        2.55594  -0.00033  -0.00326   0.00182  -0.00144   2.55450
   R12        2.04349   0.00484   0.01398   0.00928   0.02326   2.06675
   R13        2.84872  -0.02463  -0.03999  -0.10571  -0.14570   2.70301
   R14        2.04391   0.00474   0.01425   0.00862   0.02287   2.06678
   R15        2.54501  -0.00491  -0.01037  -0.00581  -0.01619   2.52883
   R16        2.03721   0.00563   0.00989   0.01609   0.02598   2.06319
   R17        2.04239   0.00332   0.01326   0.00331   0.01658   2.05897
    A1        2.06159  -0.00333  -0.02005  -0.01815  -0.03821   2.02339
    A2        2.12833   0.00140   0.01950  -0.00029   0.01921   2.14755
    A3        2.09326   0.00193   0.00055   0.01844   0.01899   2.11225
    A4        2.06176  -0.00012  -0.02381   0.02383   0.00002   2.06177
    A5        2.19062   0.00487   0.06390  -0.01402   0.04987   2.24050
    A6        2.03081  -0.00476  -0.04008  -0.00981  -0.04989   1.98091
    A7        2.03535  -0.00395  -0.03713  -0.00512  -0.04225   1.99310
    A8        2.18964   0.00412   0.05939  -0.01598   0.04341   2.23304
    A9        2.05820  -0.00017  -0.02226   0.02110  -0.00116   2.05704
   A10        2.11929  -0.00300   0.01362  -0.02945  -0.01583   2.10346
   A11        2.11687   0.00709   0.01591   0.03872   0.05463   2.17150
   A12        2.04702  -0.00408  -0.02953  -0.00927  -0.03880   2.00822
   A13        2.04679  -0.00399  -0.02968  -0.00893  -0.03862   2.00817
   A14        2.12041   0.00658   0.01435   0.03632   0.05067   2.17107
   A15        2.11599  -0.00259   0.01534  -0.02738  -0.01205   2.10394
   A16        2.06151  -0.00054  -0.02397   0.01925  -0.00472   2.05679
   A17        2.18706   0.00445   0.06158  -0.01529   0.04629   2.23335
   A18        2.03461  -0.00391  -0.03761  -0.00396  -0.04156   1.99305
   A19        2.03073  -0.00469  -0.04013  -0.00988  -0.05001   1.98072
   A20        2.19428   0.00432   0.06241  -0.01688   0.04553   2.23981
   A21        2.05817   0.00037  -0.02228   0.02676   0.00448   2.06265
   A22        2.12908   0.00138   0.01999  -0.00075   0.01924   2.14832
   A23        2.09265   0.00194   0.00015   0.01880   0.01895   2.11159
   A24        2.06146  -0.00332  -0.02014  -0.01804  -0.03818   2.02328
    D1        3.14159   0.00000   0.00000   0.00000   0.00000   3.14159
    D2        0.00000   0.00000   0.00000   0.00000   0.00000   0.00000
    D3        0.00000   0.00000   0.00000   0.00000   0.00000   0.00000
    D4        3.14159   0.00000   0.00000   0.00000   0.00000  -3.14159
    D5        3.14159   0.00000   0.00000   0.00000   0.00000   3.14159
    D6        0.00000   0.00000   0.00000   0.00000   0.00000   0.00000
    D7        0.00000   0.00000   0.00000   0.00000   0.00000   0.00000
    D8        3.14159   0.00000   0.00000   0.00000   0.00000  -3.14159
    D9        0.00000   0.00000   0.00000   0.00000   0.00000   0.00000
   D10        3.14159   0.00000   0.00000   0.00000   0.00000   3.14159
   D11        3.14159   0.00000   0.00000   0.00000   0.00000   3.14159
   D12        0.00000   0.00000   0.00000   0.00000   0.00000   0.00000
   D13        0.00000   0.00000   0.00000   0.00000   0.00000   0.00000
   D14        3.14159   0.00000   0.00000   0.00000   0.00000   3.14159
   D15        3.14159   0.00000   0.00000   0.00000   0.00000  -3.14159
   D16        0.00000   0.00000   0.00000   0.00000   0.00000   0.00000
   D17        0.00000   0.00000   0.00000   0.00000   0.00000   0.00000
   D18        3.14159   0.00000   0.00000   0.00000   0.00000   3.14159
   D19        3.14159   0.00000   0.00000   0.00000   0.00000   3.14159
   D20        0.00000   0.00000   0.00000   0.00000   0.00000   0.00000
   D21        3.14159   0.00000   0.00000   0.00000   0.00000   3.14159
   D22        0.00000   0.00000   0.00000   0.00000   0.00000   0.00000
   D23        0.00000   0.00000   0.00000   0.00000   0.00000   0.00000
   D24        3.14159   0.00000   0.00000   0.00000   0.00000   3.14159
   D25        0.00000   0.00000   0.00000   0.00000   0.00000   0.00000
   D26        3.14159   0.00000   0.00000   0.00000   0.00000  -3.14159
   D27        3.14159   0.00000   0.00000   0.00000   0.00000   3.14159
   D28        0.00000   0.00000   0.00000   0.00000   0.00000   0.00000
         Item               Value     Threshold  Converged?
 Maximum Force            0.024631     0.000450     NO 
 RMS     Force            0.005726     0.000300     NO 
 Maximum Displacement     0.197490     0.001800     NO 
 RMS     Displacement     0.055557     0.001200     NO 
 Predicted change in Energy=-5.313285D-03
 GradGradGradGradGradGradGradGradGradGradGradGradGradGradGradGradGradGrad

                          Input orientation:                          
 ---------------------------------------------------------------------
 Center     Atomic      Atomic             Coordinates (Angstroms)
 Number     Number       Type             X           Y           Z
 ---------------------------------------------------------------------
      1          6           0       -5.991509    2.612387    2.390930
      2          1           0       -5.640275    3.646081    2.386902
      3          1           0       -7.072500    2.476515    2.403756
      4          6           0       -5.164275    1.560571    2.380952
      5          1           0       -5.603514    0.559073    2.386030
      6          6           0       -3.733845    1.555959    2.363954
      7          1           0       -3.288824    0.556890    2.358525
      8          6           0       -2.899192    2.619406    2.354186
      9          1           0       -3.297578    3.638568    2.359064
     10          6           0       -1.489946    2.528003    2.337428
     11          1           0       -1.091583    1.508758    2.332550
     12          6           0       -0.655829    3.591710    2.327667
     13          1           0       -1.101521    4.590440    2.333104
     14          6           0        0.774438    3.588152    2.310671
     15          1           0        1.212782    4.590145    2.305604
     16          6           0        1.601732    2.536363    2.300692
     17          1           0        1.251325    1.502336    2.304710
     18          1           0        2.682614    2.672993    2.287868
 ---------------------------------------------------------------------
                    Distance matrix (angstroms):
                    1          2          3          4          5
     1  C    0.000000
     2  H    1.091745   0.000000
     3  H    1.089572   1.849172   0.000000
     4  C    1.338182   2.139150   2.116788   0.000000
     5  H    2.089656   3.087227   2.415537   1.093597   0.000000
     6  C    2.492752   2.829065   3.463470   1.430539   2.118946
     7  H    3.395677   3.882425   4.243018   2.127251   2.314854
     8  C    3.092544   2.927228   4.176048   2.500490   3.399904
     9  H    2.882938   2.342874   3.949987   2.793405   3.847253
    10  C    4.502671   4.298578   5.583185   3.799804   4.560755
    11  H    5.023015   5.026102   6.059124   4.073309   4.611104
    12  C    5.425178   4.985094   6.513303   4.945144   5.803437
    13  H    5.275227   4.636269   6.334529   5.068369   6.043398
    14  C    6.836417   6.415427   7.925833   6.275694   7.061110
    15  H    7.471320   6.918255   8.551196   7.060514   7.919464
    16  C    7.594157   7.327043   8.675050   6.836480   7.472116
    17  H    7.327911   7.217793   8.381222   6.416317   6.919911
    18  H    8.674947   8.380166   9.757780   7.925895   8.552088
                    6          7          8          9         10
     6  C    0.000000
     7  H    1.093715   0.000000
     8  C    1.351910   2.099001   0.000000
     9  H    2.127819   3.081690   1.094270   0.000000
    10  C    2.445537   2.668650   1.412306   2.121640   0.000000
    11  H    2.642870   2.394701   2.121664   3.066465   1.094339
    12  C    3.690499   4.017928   2.445149   2.642351   1.351784
    13  H    4.017232   4.588514   2.667778   2.393617   2.098699
    14  C    4.945428   5.069609   3.799463   4.072616   2.500414
    15  H    5.803345   6.044370   4.560099   4.609957   3.399733
    16  C    5.425272   5.276286   4.502007   5.022101   3.091908
    17  H    4.985810   4.637857   4.298497   5.025829   2.927051
    18  H    6.513409   6.335689   5.582457   6.058061   4.175373
                   11         12         13         14         15
    11  H    0.000000
    12  C    2.128050   0.000000
    13  H    3.081698   1.093678   0.000000
    14  C    2.793992   1.430373   2.127042   0.000000
    15  H    3.847827   2.118742   2.314467   1.093692   0.000000
    16  C    2.882869   2.492201   3.395269   1.338198   2.090293
    17  H    2.343082   2.829001   3.882405   2.139645   3.088049
    18  H    3.949937   3.462777   4.242443   2.116405   2.415821
                   16         17         18
    16  C    0.000000
    17  H    1.091793   0.000000
    18  H    1.089559   1.849138   0.000000
 Stoichiometry    C8H10
 Framework group  CS[SG(C8H10)]
 Deg. of freedom    33
 Full point group                 CS      NOp   2
 Largest Abelian subgroup         CS      NOp   2
 Largest concise Abelian subgroup C1      NOp   1
                         Standard orientation:                         
 ---------------------------------------------------------------------
 Center     Atomic      Atomic             Coordinates (Angstroms)
 Number     Number       Type             X           Y           Z
 ---------------------------------------------------------------------
      1          6           0       -0.205551    3.791581    0.000000
      2          1           0        0.848563    3.507413    0.000000
      3          1           0       -0.410548    4.861695    0.000000
      4          6           0       -1.202082    2.898466    0.000000
      5          1           0       -2.229716    3.272530    0.000000
      6          6           0       -1.114843    1.470590    0.000000
      7          1           0       -2.083277    0.962313    0.000000
      8          6           0        0.000000    0.705876    0.000000
      9          1           0        0.991480    1.168902    0.000000
     10          6           0       -0.000733   -0.706429    0.000000
     11          1           0       -0.992298   -1.169437    0.000000
     12          6           0        1.114335   -1.470591    0.000000
     13          1           0        2.082388   -0.961666    0.000000
     14          6           0        1.202616   -2.898237    0.000000
     15          1           0        2.230686   -3.271376    0.000000
     16          6           0        0.206114   -3.791410    0.000000
     17          1           0       -0.848277   -3.508089    0.000000
     18          1           0        0.411862   -4.861366    0.000000
 ---------------------------------------------------------------------
 Rotational constants (GHZ):      9.9040447      0.6772917      0.6339395
 Standard basis: 6-31G(d) (6D, 7F)
 There are   108 symmetry adapted basis functions of A'  symmetry.
 There are    32 symmetry adapted basis functions of A"  symmetry.
 Integral buffers will be    131072 words long.
 Raffenetti 2 integral format.
 Two-electron integral symmetry is turned on.
   140 basis functions,   264 primitive gaussians,   140 cartesian basis functions
    29 alpha electrons       29 beta electrons
       nuclear repulsion energy       304.0521888132 Hartrees.
 NAtoms=   18 NActive=   18 NUniq=   18 SFac= 1.00D+00 NAtFMM=   60 NAOKFM=F Big=F
 One-electron integrals computed using PRISM.
 NBasis=   140 RedAO= T  NBF=   108    32
 NBsUse=   140 1.00D-06 NBFU=   108    32
 Initial guess read from the read-write file.
 B after Tr=     0.000000    0.000000    0.000000
         Rot=    1.000000    0.000000    0.000000    0.000000 Ang=   0.00 deg.
 Initial guess orbital symmetries:
       Occupied  (A') (A') (A') (A') (A') (A') (A') (A') (A') (A')
                 (A') (A') (A') (A') (A') (A') (A') (A') (A') (A')
                 (A') (A') (A') (A') (A') (A") (A") (A") (A")
       Virtual   (A") (A") (A") (A') (A') (A") (A') (A') (A') (A')
                 (A') (A') (A') (A') (A') (A') (A') (A') (A') (A')
                 (A') (A') (A') (A") (A") (A') (A') (A") (A') (A')
                 (A") (A') (A") (A') (A") (A') (A') (A") (A") (A')
                 (A') (A') (A') (A') (A') (A') (A') (A') (A') (A')
                 (A') (A') (A') (A') (A') (A') (A') (A') (A') (A')
                 (A") (A") (A') (A") (A") (A") (A') (A') (A") (A")
                 (A") (A") (A') (A') (A') (A') (A') (A') (A') (A")
                 (A') (A") (A') (A') (A") (A') (A') (A') (A") (A')
                 (A") (A') (A") (A") (A') (A') (A') (A') (A') (A')
                 (A') (A') (A') (A') (A') (A') (A') (A') (A') (A')
                 (A')
 Harris functional with IExCor=  402 diagonalized for initial guess.
 ExpMin= 1.61D-01 ExpMax= 3.05D+03 ExpMxC= 4.57D+02 IAcc=1 IRadAn=         1 AccDes= 0.00D+00
 HarFok:  IExCor=  402 AccDes= 0.00D+00 IRadAn=         1 IDoV= 1
 ScaDFX=  1.000000  1.000000  1.000000  1.000000
 FoFCou: FMM=F IPFlag=           0 FMFlag=      100000 FMFlg1=           0
         NFxFlg=           0 DoJE=T BraDBF=F KetDBF=T FulRan=T
         Omega=  0.000000  0.000000  1.000000  0.000000  0.000000 ICntrl=     500 IOpCl=  0
         NMat0=    1 NMatS0=    1 NMatT0=    0 NMatD0=    1 NMtDS0=    0 NMtDT0=    0
         I1Cent=           4 NGrid=           0.
 Petite list used in FoFCou.
 Requested convergence on RMS density matrix=1.00D-08 within 128 cycles.
 Requested convergence on MAX density matrix=1.00D-06.
 Requested convergence on             energy=1.00D-06.
 No special actions if energy rises.
 Integral accuracy reduced to 1.0D-05 until final iterations.
 Initial convergence to 1.0D-05 achieved.  Increase integral accuracy.
 SCF Done:  E(RB3LYP) =  -310.791876707     A.U. after   13 cycles
             Convg  =    0.8854D-08             -V/T =  2.0096
 Calling FoFJK, ICntrl=      2127 FMM=F ISym2X=1 I1Cent= 0 IOpClX= 0 NMat=1 NMatS=1 NMatT=0.
 ***** Axes restored to original set *****
 -------------------------------------------------------------------
 Center     Atomic                   Forces (Hartrees/Bohr)
 Number     Number              X              Y              Z
 -------------------------------------------------------------------
      1        6          -0.008095466    0.008371181    0.000097377
      2        1          -0.000331683   -0.003156212    0.000003496
      3        1           0.002577666    0.000337806   -0.000030582
      4        6          -0.013367031   -0.008456223    0.000157641
      5        1          -0.001748837    0.003112295    0.000021220
      6        6           0.013785778   -0.007271402   -0.000164838
      7        1           0.001874338    0.003012883   -0.000021847
      8        6          -0.012789311    0.011670196    0.000153618
      9        1          -0.002613669   -0.003051924    0.000030626
     10        6           0.012666471   -0.011820997   -0.000152180
     11        1           0.002619625    0.003104767   -0.000030690
     12        6          -0.013824278    0.007385140    0.000165311
     13        1          -0.001887547   -0.002985060    0.000022007
     14        6           0.013344038    0.008377071   -0.000157379
     15        1           0.001796438   -0.003216134   -0.000021800
     16        6           0.008253068   -0.008260717   -0.000099234
     17        1           0.000287343    0.003226079   -0.000002959
     18        1          -0.002546944   -0.000378748    0.000030211
 -------------------------------------------------------------------
 Cartesian Forces:  Max     0.013824278 RMS     0.006050789

 GradGradGradGradGradGradGradGradGradGradGradGradGradGradGradGradGradGrad
 Berny optimization.
 Using GEDIIS/GDIIS optimizer.
 Internal  Forces:  Max     0.021135919 RMS     0.005011754
 Search for a local minimum.
 Step number   3 out of a maximum of   79
 All quantities printed in internal units (Hartrees-Bohrs-Radians)
 Mixed Optimization -- RFO/linear search
 Update second derivatives using D2CorX and points    1    2    3
 DE= -2.43D-03 DEPred=-5.31D-03 R= 4.58D-01
 Trust test= 4.58D-01 RLast= 3.09D-01 DXMaxT set to 5.05D-01
 ITU=  0  1  0
 Use linear search instead of GDIIS.
     Eigenvalues ---    0.00237   0.00237   0.00237   0.01497   0.01497
     Eigenvalues ---    0.01507   0.01508   0.01520   0.01521   0.02681
     Eigenvalues ---    0.02681   0.02681   0.02681   0.02681   0.02681
     Eigenvalues ---    0.15176   0.16000   0.16000   0.16000   0.16000
     Eigenvalues ---    0.16000   0.16000   0.16000   0.16151   0.16501
     Eigenvalues ---    0.19536   0.22000   0.22000   0.22000   0.22001
     Eigenvalues ---    0.24784   0.28519   0.30024   0.35625   0.36600
     Eigenvalues ---    0.37230   0.37230   0.37230   0.37230   0.37230
     Eigenvalues ---    0.37230   0.37230   0.37339   0.38130   0.53849
     Eigenvalues ---    0.53930   0.53930   0.55846
 RFO step:  Lambda=-5.27551102D-04 EMin= 2.36824080D-03
 Quartic linear search produced a step of -0.39083.
 Iteration  1 RMS(Cart)=  0.03109635 RMS(Int)=  0.00014100
 Iteration  2 RMS(Cart)=  0.00016617 RMS(Int)=  0.00000001
 Iteration  3 RMS(Cart)=  0.00000001 RMS(Int)=  0.00000001
 ClnCor:  largest displacement from symmetrization is 1.24D-07 for atom    17.
 Variable       Old X    -DE/DX   Delta X   Delta X   Delta X     New X
                                 (Linear)    (Quad)   (Total)
    R1        2.06310  -0.00310  -0.01015   0.00252  -0.00763   2.05547
    R2        2.05899  -0.00260  -0.00645   0.00027  -0.00618   2.05281
    R3        2.52880   0.00798   0.00632   0.00458   0.01090   2.53970
    R4        2.06660  -0.00215  -0.00895   0.00295  -0.00600   2.06060
    R5        2.70333   0.02097   0.05675   0.00067   0.05743   2.76075
    R6        2.06682  -0.00199  -0.00906   0.00331  -0.00576   2.06106
    R7        2.55474   0.00646   0.00047   0.00708   0.00755   2.56229
    R8        2.06787  -0.00189  -0.01174   0.00573  -0.00601   2.06186
    R9        2.66887   0.02096   0.05002   0.00779   0.05781   2.72668
   R10        2.06800  -0.00194  -0.01183   0.00573  -0.00610   2.06190
   R11        2.55450   0.00661   0.00056   0.00718   0.00774   2.56224
   R12        2.06675  -0.00196  -0.00909   0.00338  -0.00571   2.06105
   R13        2.70301   0.02114   0.05694   0.00087   0.05782   2.76083
   R14        2.06678  -0.00223  -0.00894   0.00281  -0.00613   2.06065
   R15        2.52883   0.00796   0.00633   0.00455   0.01088   2.53970
   R16        2.06319  -0.00315  -0.01015   0.00243  -0.00772   2.05547
   R17        2.05897  -0.00257  -0.00648   0.00034  -0.00614   2.05283
    A1        2.02339   0.00047   0.01493  -0.01014   0.00479   2.02818
    A2        2.14755  -0.00097  -0.00751   0.00159  -0.00592   2.14162
    A3        2.11225   0.00050  -0.00742   0.00856   0.00113   2.11338
    A4        2.06177  -0.00246  -0.00001  -0.00809  -0.00809   2.05368
    A5        2.24050  -0.00098  -0.01949   0.01004  -0.00946   2.23104
    A6        1.98091   0.00344   0.01950  -0.00195   0.01755   1.99847
    A7        1.99310   0.00362   0.01651   0.00110   0.01761   2.01071
    A8        2.23304  -0.00118  -0.01697   0.00762  -0.00934   2.22370
    A9        2.05704  -0.00245   0.00045  -0.00872  -0.00827   2.04877
   A10        2.10346  -0.00344   0.00619  -0.01952  -0.01334   2.09012
   A11        2.17150  -0.00044  -0.02135   0.01592  -0.00543   2.16608
   A12        2.00822   0.00389   0.01517   0.00360   0.01877   2.02699
   A13        2.00817   0.00388   0.01509   0.00365   0.01875   2.02692
   A14        2.17107  -0.00038  -0.01980   0.01489  -0.00491   2.16616
   A15        2.10394  -0.00350   0.00471  -0.01854  -0.01383   2.09011
   A16        2.05679  -0.00244   0.00185  -0.00981  -0.00796   2.04883
   A17        2.23335  -0.00120  -0.01809   0.00837  -0.00972   2.22363
   A18        1.99305   0.00364   0.01624   0.00144   0.01768   2.01073
   A19        1.98072   0.00346   0.01955  -0.00188   0.01767   1.99839
   A20        2.23981  -0.00085  -0.01779   0.00906  -0.00874   2.23107
   A21        2.06265  -0.00261  -0.00175  -0.00718  -0.00893   2.05372
   A22        2.14832  -0.00109  -0.00752   0.00112  -0.00640   2.14192
   A23        2.11159   0.00060  -0.00740   0.00896   0.00155   2.11314
   A24        2.02328   0.00049   0.01492  -0.01008   0.00485   2.02812
    D1        3.14159   0.00000   0.00000   0.00000   0.00000   3.14159
    D2        0.00000   0.00000   0.00000   0.00000   0.00000   0.00000
    D3        0.00000   0.00000   0.00000   0.00000   0.00000   0.00000
    D4        3.14159   0.00000   0.00000   0.00000   0.00000   3.14159
    D5        3.14159   0.00000   0.00000   0.00000   0.00000   3.14159
    D6        0.00000   0.00000   0.00000   0.00000   0.00000   0.00000
    D7        0.00000   0.00000   0.00000   0.00000   0.00000   0.00000
    D8       -3.14159   0.00000   0.00000   0.00000   0.00000   3.14159
    D9        0.00000   0.00000   0.00000   0.00000   0.00000   0.00000
   D10        3.14159   0.00000   0.00000   0.00000   0.00000   3.14159
   D11        3.14159   0.00000   0.00000   0.00000   0.00000   3.14159
   D12        0.00000   0.00000   0.00000   0.00000   0.00000   0.00000
   D13        0.00000   0.00000   0.00000   0.00000   0.00000   0.00000
   D14        3.14159   0.00000   0.00000   0.00000   0.00000   3.14159
   D15        3.14159   0.00000   0.00000   0.00000   0.00000   3.14159
   D16        0.00000   0.00000   0.00000   0.00000   0.00000   0.00000
   D17        0.00000   0.00000   0.00000   0.00000   0.00000   0.00000
   D18        3.14159   0.00000   0.00000   0.00000   0.00000   3.14159
   D19       -3.14159   0.00000   0.00000   0.00000   0.00000   3.14159
   D20        0.00000   0.00000   0.00000   0.00000   0.00000   0.00000
   D21       -3.14159   0.00000   0.00000   0.00000   0.00000   3.14159
   D22        0.00000   0.00000   0.00000   0.00000   0.00000   0.00000
   D23        0.00000   0.00000   0.00000   0.00000   0.00000   0.00000
   D24        3.14159   0.00000   0.00000   0.00000   0.00000  -3.14159
   D25        0.00000   0.00000   0.00000   0.00000   0.00000   0.00000
   D26        3.14159   0.00000   0.00000   0.00000   0.00000   3.14159
   D27        3.14159   0.00000   0.00000   0.00000   0.00000   3.14159
   D28        0.00000   0.00000   0.00000   0.00000   0.00000   0.00000
         Item               Value     Threshold  Converged?
 Maximum Force            0.021136     0.000450     NO 
 RMS     Force            0.005012     0.000300     NO 
 Maximum Displacement     0.103834     0.001800     NO 
 RMS     Displacement     0.031015     0.001200     NO 
 Predicted change in Energy=-2.521467D-03
 GradGradGradGradGradGradGradGradGradGradGradGradGradGradGradGradGradGrad

                          Input orientation:                          
 ---------------------------------------------------------------------
 Center     Atomic      Atomic             Coordinates (Angstroms)
 Number     Number       Type             X           Y           Z
 ---------------------------------------------------------------------
      1          6           0       -6.023688    2.610727    2.391312
      2          1           0       -5.658461    3.635274    2.387117
      3          1           0       -7.102747    2.486154    2.404117
      4          6           0       -5.202391    1.546974    2.381403
      5          1           0       -5.657322    0.555997    2.386669
      6          6           0       -3.741571    1.542985    2.364044
      7          1           0       -3.279826    0.554898    2.358418
      8          6           0       -2.914982    2.617759    2.354374
      9          1           0       -3.335652    3.624482    2.359515
     10          6           0       -1.474815    2.530728    2.337248
     11          1           0       -1.054204    1.523959    2.332108
     12          6           0       -0.648151    3.605412    2.327577
     13          1           0       -1.109756    4.593554    2.333202
     14          6           0        0.812709    3.601195    2.310218
     15          1           0        1.267729    4.592159    2.304951
     16          6           0        1.633876    2.537336    2.300310
     17          1           0        1.268822    1.512726    2.304503
     18          1           0        2.712929    2.662033    2.287506
 ---------------------------------------------------------------------
                    Distance matrix (angstroms):
                    1          2          3          4          5
     1  C    0.000000
     2  H    1.087706   0.000000
     3  H    1.086302   1.845733   0.000000
     4  C    1.343949   2.137529   2.119890   0.000000
     5  H    2.087142   3.079277   2.411445   1.090424   0.000000
     6  C    2.519698   2.837723   3.491229   1.460928   2.155170
     7  H    3.428746   3.891972   4.283290   2.163562   2.377664
     8  C    3.108933   2.926275   4.190128   2.525777   3.431083
     9  H    2.873020   2.322998   3.935579   2.793068   3.847919
    10  C    4.549898   4.327286   5.628506   3.855456   4.625513
    11  H    5.087272   5.065556   6.125021   4.148543   4.704107
    12  C    5.467162   5.010753   6.551367   4.998116   5.864658
    13  H    5.299217   4.648862   6.353118   5.102316   6.081536
    14  C    6.908251   6.471717   7.994159   6.356596   7.151250
    15  H    7.556341   6.992459   8.631915   7.151324   8.015835
    16  C    7.658457   7.375038   8.737390   6.908107   7.556106
    17  H    7.375218   7.245639   8.428562   6.471760   6.992393
    18  H    8.737384   8.428362   9.817945   7.994026   8.631704
                    6          7          8          9         10
     6  C    0.000000
     7  H    1.090668   0.000000
     8  C    1.355906   2.094880   0.000000
     9  H    2.120712   3.070091   1.091091   0.000000
[...]
 ,0.0000853,0.0029623,0.0000595,0.1331666,0.3855489,0.1010438,-0.005601
 6,0.4092998,0.1489036,-0.0048302,-0.005558,-0.0011673,-0.0869961,-0.03
 50223,-0.0579047,0.0017175,-0.1086933,-0.1148192,0.0012598,0.0017103,0
 .0006563,0.1101819,-0.0612066,-0.1252509,-0.000836,-0.3796249,0.074852
 4,0.0045399,-0.0008719,0.0015172,-0.1300627,-0.009712,0.0817787,0.0014
 606,0.0636387,-0.087939,-0.0007845,0.001458,-0.001,0.1122157,0.093219,
 0.0276623,-0.0021287,-0.0890214,0.0646039,0.0010791,-0.0021452,-0.0003
 074,-0.0862325,-0.0122415,0.0381641,0.0014059,0.0809652,-0.082278,-0.0
 009886,0.0014119,-0.00048,0.1056018,0.0932387,0.027676,-0.002129,-0.08
 89998,0.0646022,0.0010789,-0.0021454,-0.0003076,-0.086231,-0.0122401,0
 .03816,0.0014058,0.0809636,-0.0822813,-0.0009886,0.0014119,-0.00048,0.
 1056002,-0.0612286,-0.1252548,-0.0008358,-0.3796298,0.0748663,0.004539
 9,-0.0008717,0.0015173,-0.1300638,-0.0097057,0.081773,0.0014605,0.0636
 372,-0.0879445,-0.0007844,0.0014579,-0.0009999,0.1122164,0.3855674,0.1
 010385,-0.0056018,0.4092939,0.1488925,-0.0048302,-0.0055583,-0.0011673
 ,-0.0869966,-0.0350295,-0.0579083,0.0017175,-0.1086947,-0.1148208,0.00
 12598,0.0017104,0.0006563,0.1101807,-0.2677397,0.0167612,-0.0002998,0.
 0680685,0.017963,-0.0007649,-0.0002926,-0.0001552,-0.2931675,0.0233372
 ,-0.0762869,0.0013197,-0.0364969,-0.0742697,0.0004041,0.0013254,0.0008
 769,0.1352936,-0.116191,-0.0059586,0.0029626,-0.0081362,0.0529881,0.00
 00854,0.0029623,0.0000595,0.1331657\Polar=219.8752325,18.5585838,88.28
 76628,-2.2651505,-0.212156,29.0539346\PG=CS [SG(C8H10)]\NImag=2\\0.718
 65827,-0.08748073,0.76251195,-0.00736373,0.00113305,0.10007844,-0.0952
 7806,-0.09354100,0.00070568,0.09133895,-0.09106480,-0.30380968,0.00104
 410,0.09967076,0.32546593,0.00070603,0.00107352,-0.03478689,-0.0008219
 0,-0.00114135,0.02099542,-0.34084678,-0.03539175,0.00369690,-0.0061619
 1,0.00056789,0.00010477,0.36072831,-0.03985086,-0.06261372,0.00046883,
 -0.02713089,-0.00020074,0.00032198,0.03607076,0.05917648,0.00369627,0.
 00041584,-0.02935146,0.00010086,-0.00000715,0.00264727,-0.00403489,-0.
 00042319,0.02078478,-0.25234486,0.18157903,0.00243305,0.01358392,-0.01
 118015,-0.00010296,-0.01547841,0.02839218,0.00023536,0.65229428,0.2002
 9323,-0.38077225,-0.00242675,0.01843020,-0.02139999,-0.00022273,-0.004
 63025,0.00572996,0.00005526,-0.09191642,0.77700181,0.00243570,-0.00220
 437,-0.04977400,-0.00009878,0.00012911,0.00505297,0.00023070,-0.000337
 13,0.00398872,-0.00621934,0.00118357,0.13006101,0.01072008,0.02035234,
 -0.00006291,-0.00164798,0.00340713,0.00016475,0.00116598,0.00016835,-0
 .00010603,-0.10722758,-0.10496258,0.00077419,0.11549094,-0.01179784,-0
 .02393705,0.00013608,0.00336697,-0.00223067,-0.00004204,0.00025264,0.0
 0132256,-0.00000172,-0.10513116,-0.28006541,0.00121545,0.11024437,0.30
 113713,-0.00006745,-0.00024595,0.00518439,0.00016474,-0.00004252,0.012
 17441,-0.00010602,-0.00000072,-0.00775809,0.00077416,0.00121345,-0.040
 83631,-0.00103578,-0.00127128,0.02702514,-0.03937209,0.02591953,0.0005
 4730,-0.00020124,-0.00174956,-0.00008456,0.00106802,0.00108379,0.00011
 495,-0.24340269,-0.02357586,0.00218436,-0.01340627,0.00280671,0.000194
 71,0.65426059,0.02147467,0.01407098,-0.00025409,-0.00101000,0.00093975
 ,0.00001316,0.00314425,-0.00340906,-0.00003936,0.02416175,-0.11276952,
 -0.00029466,-0.03060758,0.00135460,0.00036347,0.07274452,0.74894766,0.
 00054667,-0.00030690,0.00637194,-0.00008446,0.00002195,-0.00729572,0.0
 0011524,-0.00001487,0.01072766,0.00219110,0.00027259,-0.05931962,0.000
 18999,-0.00003358,0.00294390,-0.00624473,-0.00077669,0.12793392,-0.005
 24576,-0.00250729,0.00008480,0.00020952,0.00011344,-0.00000413,-0.0008
 9474,0.00121486,0.00001231,-0.01283126,0.03054017,0.00019275,0.0009271
 6,-0.00017863,-0.00002309,-0.10750619,0.10372757,0.00083791,0.11555246
 ,-0.00019336,0.00110963,0.00000218,-0.00021142,0.00009917,0.00000255,-
 0.00005550,-0.00005226,0.00000063,-0.00304055,0.00164646,0.00003593,0.
 00019001,0.00117659,-0.00000195,0.10396290,-0.27889518,-0.00126933,-0.
 11024532,0.30016782,0.00008513,0.00002968,0.00191967,-0.00000417,-0.00
 000131,-0.00013897,0.00001213,-0.00001446,0.00012684,0.00018801,-0.000
 36309,0.00302460,-0.00002304,0.00000243,-0.00101347,0.00083794,-0.0012
 6654,-0.03823340,-0.00109308,0.00134887,0.02488586,0.00739201,-0.01244
 886,-0.00008205,-0.00022254,0.00030688,0.00000520,0.00028340,-0.000258
 33,-0.00000957,-0.04707811,-0.01885983,0.00061148,-0.00573462,0.000274
 75,0.00009764,-0.21520493,-0.15837287,0.00187891,0.01088200,0.01222565
 ,-0.00006606,0.66450737,0.00903072,-0.00513946,-0.00010812,0.00098836,
 -0.00054551,-0.00001185,0.00005112,-0.00098297,-0.00000067,-0.02339814
 ,0.01281796,0.00027919,0.00267401,0.00119199,-0.00003196,-0.16042321,-
 0.35506479,0.00186390,-0.01841670,-0.02496874,0.00021458,0.06553530,0.
 76570432,-0.00007902,0.00014711,0.00063581,0.00000530,-0.00000375,0.00
 021148,-0.00000953,0.00000300,-0.00051904,0.00061084,0.00022526,0.0045
 9871,0.00009798,-0.00000345,0.00247836,0.00187862,0.00183954,-0.055222
 06,-0.00007039,-0.00014953,0.00517815,-0.00633299,-0.00068907,0.130839
 94,-0.00053029,-0.00081853,0.00001013,-0.00161671,-0.00003145,0.000032
 05,0.00015722,0.00017069,-0.00000514,-0.00031627,0.00089254,-0.0000652
 2,0.00019507,0.00021887,-0.00000376,0.01303848,-0.01817984,-0.00009365
 ,-0.00194694,-0.00329068,0.00014444,-0.10053418,0.09610811,0.00071050,
 0.10615065,-0.00023691,-0.00029328,0.00000273,-0.00031717,0.00098470,0
 .00000376,0.00003462,0.00051005,-0.00000030,0.00167381,0.00092868,-0.0
 0001894,-0.00008975,0.00013077,0.00000110,0.01158645,-0.02264270,-0.00
 014163,-0.00294277,-0.00254837,0.00003316,0.09630495,-0.28467434,-0.00
 117864,-0.10525668,0.30674255,0.00001021,0.00000964,0.00033180,0.00003
 201,0.00000036,0.00108087,-0.00000515,-0.00000192,-0.00027695,-0.00006
 511,-0.00000965,-0.00581489,-0.00000380,-0.00000256,-0.00012393,-0.000
 08945,0.00021207,0.00537444,0.00014448,0.00003729,0.01024566,0.0007105
 3,-0.00117630,-0.04189137,-0.00097485,0.00129046,0.02537294,-0.0039846
 9,0.00614000,0.00004058,-0.00008860,0.00001978,0.00000235,0.00005625,0
 .00019917,-0.00000677,0.01673659,-0.00649737,-0.00007976,0.00018104,0.
 00008297,-0.00000154,-0.05357088,-0.02843751,0.00069841,0.00089477,0.0
 0254476,-0.00009207,-0.26338990,0.04098439,0.00245231,-0.01112570,0.00
 025412,0.00017340,0.66451427,-0.00178767,0.00135539,0.00002152,-0.0002
 8623,0.00066124,0.00000348,0.00001008,0.00054328,0.00000003,0.00470117
 ,-0.00576758,-0.00005810,-0.00138613,-0.00015431,0.00001644,-0.0426758
 6,-0.00347962,0.00050583,-0.00208406,0.00110383,0.00002589,0.04098497,
 -0.10099983,-0.00049315,0.03037348,-0.00160156,-0.00036163,0.06553993,
 0.76570065,0.00003946,-0.00007268,-0.00064307,0.00000230,-0.00000016,0
 .00010860,-0.00000680,-0.00000222,-0.00051567,-0.00007818,0.00007496,0
 .01010262,-0.00000175,-0.00000101,0.00005047,0.00069640,0.00033664,0.0
 0553489,-0.00009272,-0.00002911,-0.00688238,0.00245231,-0.00049314,-0.
 05752741,0.00017765,-0.00000373,0.00346183,-0.00633307,-0.00068913,0.1
 3083991,-0.00001785,0.00020998,0.00000029,0.00006920,-0.00018828,-0.00
 000046,0.00000043,-0.00013899,0.00000013,0.00027531,-0.00033918,-0.000
 00576,-0.00002927,-0.00005235,0.00000087,0.00144995,0.00191835,-0.0000
 4044,-0.00001371,-0.00147455,0.00000350,-0.01112620,0.03037374,0.00017
 766,-0.00520547,-0.00012149,0.00010972,-0.10053185,0.09610739,0.000710
 48,0.10614899,-0.00011712,-0.00002749,0.00000139,-0.00001261,0.0000131
 6,0.00000015,-0.00000935,0.00001963,0.00000011,0.00019558,0.00020212,-
 0.00000227,0.00006516,0.00001892,-0.00000078,-0.00153848,0.00106491,0.
 00001871,0.00052715,0.00054834,-0.00000623,0.00025433,-0.00160210,-0.0
 0000374,-0.00012140,0.00062404,0.00000096,0.09630450,-0.28467896,-0.00
 117863,-0.10525528,0.30674796,0.00000024,-0.00000250,0.00000381,-0.000
 00044,0.00000223,0.00003241,0.00000015,0.00000165,0.00001328,-0.000005
 68,0.00000409,-0.00020516,0.00000089,0.00000062,0.00004481,-0.00004093
 ,-0.00002237,-0.00197599,0.00000378,0.00001756,0.00029821,0.00017341,-
 0.00036163,0.00346198,0.00010972,0.00000096,0.00402820,0.00071051,-0.0
 0117629,-0.04189097,-0.00097484,0.00129044,0.02537248,0.00177717,-0.00
 319540,-0.00002139,0.00003870,0.00012353,-0.00000017,-0.00008007,0.000
 03383,0.00000061,-0.00719355,0.00175967,0.00008632,-0.00063134,-0.0000
 7082,0.00000516,0.00872204,0.01376360,-0.00006395,0.00021431,-0.000554
 97,-0.00000118,-0.05356997,-0.04267544,0.00069639,0.00145021,-0.001538
 09,-0.00004093,-0.21521253,-0.16042626,0.00187871,0.01303822,0.0115857
 1,-0.00008944,0.65426568,0.00158795,-0.00250069,-0.00001922,0.00006494
 ,-0.00000577,-0.00000078,-0.00006779,-0.00006762,0.00000080,-0.0059353
 5,0.00318276,0.00007097,0.00002259,0.00000419,-0.00000024,0.01376298,0
 .00895524,-0.00016272,0.00000091,0.00031490,0.00000002,-0.02843562,-0.
 00347860,0.00033661,0.00191810,0.00106492,-0.00002236,-0.15837500,-0.3
 5505747,0.00183956,-0.01818089,-0.02264309,0.00021208,0.07274791,0.748
 94811,-0.00002071,0.00003761,0.00001561,-0.00000018,-0.00000147,0.0000
 2307,0.00000059,-0.00000041,-0.00002949,0.00008523,-0.00002047,0.00004
 855,0.00000517,0.00000087,-0.00019660,-0.00006395,-0.00016273,0.003177
 48,-0.00000110,0.00000662,0.00012143,0.00069840,0.00050582,0.00553472,
 -0.00004045,0.00001871,-0.00197594,0.00187900,0.00186394,-0.05522198,-
 0.00009365,-0.00014162,0.00537450,-0.00624480,-0.00077673,0.12793322,0
 .00004900,-0.00007530,-0.00000155,-0.00001654,0.00001923,0.00000037,0.
 00000586,0.00001573,0.00000075,-0.00012960,0.00009996,0.00000223,0.000
 02026,0.00001729,-0.00000011,0.00021429,0.00000091,-0.00000110,-0.0001
 7060,0.00017377,0.00000677,0.00089507,-0.00208351,-0.00009272,-0.00001
 385,0.00052725,0.00000378,0.01088215,-0.01841757,-0.00007039,-0.001947
 07,-0.00294283,0.00014449,-0.10749850,0.10372092,0.00083782,0.11554461
 ,-0.00008519,-0.00003542,0.00000102,-0.00001046,0.00002578,0.00000013,
 -0.00000240,0.00002886,0.00000002,0.00007516,-0.00000759,-0.00000090,-
 0.00000786,0.00001016,0.00000009,-0.00055495,0.00031481,0.00000662,0.0
 0017376,0.00027604,-0.00000208,0.00254458,0.00110395,-0.00002911,-0.00
 147440,0.00054826,0.00001756,0.01222474,-0.02496792,-0.00014952,-0.003
 29069,-0.00254818,0.00003730,0.10395740,-0.27890410,-0.00126927,-0.110
 23954,0.30017673,-0.00000155,0.00000090,-0.00008039,0.00000036,-0.0000
 0023,0.00001403,0.00000075,-0.00000019,0.00006899,0.00000223,-0.000001
 20,0.00005726,-0.00000011,-0.00000021,0.00001103,-0.00000118,0.0000000
 2,0.00012143,0.00000677,-0.00000208,0.00039683,-0.00009207,0.00002589,
 -0.00688225,0.00000350,-0.00000623,0.00029822,-0.00006606,0.00021459,0
 .00517797,0.00014444,0.00003316,0.01024573,0.00083785,-0.00126646,-0.0
 3823341,-0.00109299,0.00134881,0.02488569,-0.00079507,0.00179336,0.000
 01101,-0.00004996,-0.00001207,-0.00000088,0.00007975,0.00000019,0.0000
 0017,0.00371500,-0.00202645,-0.00005703,0.00016252,0.00006815,-0.00000
 197,-0.00719345,-0.00593557,0.00008523,-0.00012960,0.00007515,0.000002
 23,0.01673654,0.00470131,-0.00007818,0.00027527,0.00019557,-0.00000568
 ,-0.04707963,-0.02339752,0.00061085,-0.00031615,0.00167380,-0.00006511
 ,-0.24340927,0.02416636,0.00219119,-0.01283126,-0.00304005,0.00018801,
 0.65230607,0.00083958,-0.00062668,-0.00001008,0.00000089,0.00001079,0.
 ,0.00003064,-0.00002587,-0.00000038,-0.00202653,-0.00014870,0.00002421
 ,-0.00007891,0.00006302,0.00000095,0.00175983,0.00318292,-0.00002047,0
 .00009995,-0.00000761,-0.00000120,-0.00649780,-0.00576763,0.00007497,-
 0.00033916,0.00020207,0.00000409,-0.01885896,0.01281883,0.00022525,0.0
 0089251,0.00092858,-0.00000965,-0.02357235,-0.11276892,0.00027255,0.03
 054112,0.00164532,-0.00036310,-0.09191653,0.77699933,0.00001087,-0.000
 02141,0.00010973,-0.00000088,0.00000016,-0.00012399,0.00000017,-0.0000
 0002,0.00009398,-0.00005703,0.00002421,-0.00105973,-0.00000200,-0.0000
 0080,-0.00000445,0.00008631,0.00007097,0.00004855,0.00000224,-0.000000
 90,0.00005730,-0.00007976,-0.00005810,0.01010262,-0.00000576,-0.000002
 27,-0.00020518,0.00061149,0.00027918,0.00459861,-0.00006522,-0.0000189
 4,-0.00581504,0.00218445,-0.00029471,-0.05931897,0.00019275,0.00003593
 ,0.00302479,-0.00621949,0.00118357,0.13006022,-0.00011308,0.00002147,0
 .00000127,0.00001227,-0.00000258,-0.00000006,-0.00001853,0.00001082,0.
 00000020,0.00016253,-0.00007890,-0.00000200,-0.00006664,-0.00002088,0.
 00000104,-0.00063134,0.00002258,0.00000517,0.00002026,-0.00000786,-0.0
 0000011,0.00018104,-0.00138611,-0.00000175,-0.00002928,0.00006516,0.00
 000089,-0.00573463,0.00267414,0.00009798,0.00019509,-0.00008973,-0.000
 00380,-0.01340708,-0.03060717,0.00019000,0.00092713,0.00018993,-0.0000
 2304,-0.10723318,-0.10496804,0.00077425,0.11549739,-0.00007473,-0.0000
 1324,0.00000089,0.00000749,-0.00000085,-0.00000009,-0.00001381,0.00000
 493,0.00000017,0.00006814,0.00006303,-0.00000080,-0.00002088,-0.000013
 32,0.00000024,-0.00007080,0.00000419,0.00000087,0.00001729,0.00001017,
 -0.00000021,0.00008297,-0.00015427,-0.00000101,-0.00005235,0.00001892,
 0.00000062,0.00027490,0.00119193,-0.00000345,0.00021888,0.00013077,-0.
 00000256,0.00280718,0.00135524,-0.00003358,-0.00017859,0.00117667,0.00
 000243,-0.10513630,-0.28006018,0.00121551,0.11024928,0.30113256,0.0000
 0125,-0.00000026,-0.00000667,-0.00000005,0.00000003,0.00000763,0.00000
 019,-0.00000013,-0.00000196,-0.00000197,0.00000095,-0.00000446,0.00000
 104,0.00000024,0.00002134,0.00000516,-0.00000024,-0.00019660,-0.000000
 11,0.00000009,0.00001103,-0.00000154,0.00001644,0.00005048,0.00000087,
 -0.00000078,0.00004481,0.00009764,-0.00003196,0.00247839,-0.00000376,0
 .00000110,-0.00012393,0.00019472,0.00036347,0.00294391,-0.00002309,-0.
 00000195,-0.00101349,0.00077423,0.00121351,-0.04083627,-0.00103586,-0.
 00127134,0.02702492,-0.00003770,-0.00055526,0.00000061,0.00002923,0.00
 000092,-0.00000055,-0.00005952,0.00001741,0.00000057,-0.00079508,0.000
 83954,0.00001087,-0.00011307,-0.00007473,0.00000125,0.00177710,0.00158
 802,-0.00002071,0.00004900,-0.00008518,-0.00000155,-0.00398463,-0.0017
 8778,0.00003946,-0.00001784,-0.00011710,0.00000024,0.00739236,0.009030
 75,-0.00007902,-0.00053021,-0.00023696,0.00001021,-0.03937094,0.021475
 01,0.00054665,-0.00524569,-0.00019315,0.00008513,-0.25234314,0.2002940
 6,0.00243568,0.01071990,-0.01179836,-0.00006745,0.71865254,-0.00055527
 ,0.00069780,0.00000669,-0.00001472,0.00000181,0.00000018,0.00001314,0.
 00002142,-0.00000015,0.00179337,-0.00062665,-0.00002141,0.00002148,-0.
 00001324,-0.00000026,-0.00319537,-0.00250079,0.00003761,-0.00007529,-0
 .00003542,0.00000090,0.00614000,0.00135551,-0.00007268,0.00020996,-0.0
 0002748,-0.00000250,-0.01244906,-0.00513940,0.00014711,-0.00081846,-0.
 00029323,0.00000964,0.02592027,0.01407002,-0.00030691,-0.00250712,0.00
 110978,0.00002968,0.18157859,-0.38077508,-0.00220437,0.02035214,-0.023
 93828,-0.00024595,-0.08748199,0.76251836,0.00000061,0.00000669,0.00002
 006,-0.00000055,0.,-0.00001670,0.00000057,-0.00000020,-0.00001206,0.00
 001101,-0.00001008,0.00010973,0.00000127,0.00000089,-0.00000667,-0.000
 02139,-0.00001923,0.00001561,-0.00000155,0.00000102,-0.00008038,0.0000
 4058,0.00002153,-0.00064307,0.00000029,0.00000139,0.00000380,-0.000082
 06,-0.00010812,0.00063575,0.00001013,0.00000273,0.00033180,0.00054728,
 -0.00025409,0.00637189,0.00008480,0.00000218,0.00191971,0.00243304,-0.
 00242676,-0.04977378,-0.00006291,0.00013608,0.00518458,-0.00736366,0.0
 0113307,0.10007810,0.00002923,-0.00001472,-0.00000055,-0.00000506,0.00
 000509,-0.00000030,0.00000684,-0.00000019,0.00000044,-0.00004996,0.000
 00088,-0.00000088,0.00001227,0.00000749,-0.00000005,0.00003869,0.00006
 494,-0.00000018,-0.00001655,-0.00001046,0.00000036,-0.00008859,-0.0002
 8623,0.00000230,0.00006920,-0.00001261,-0.00000044,-0.00022240,0.00098
 828,0.00000530,-0.00161663,-0.00031707,0.00003201,-0.00020123,-0.00101
 000,-0.00008445,0.00020949,-0.00021142,-0.00000417,0.01358404,0.018429
 77,-0.00009878,-0.00164785,0.00336704,0.00016474,-0.09527748,-0.093540
 20,0.00070567,0.09133800,0.00000093,0.00000181,0.,0.00000509,-0.000006
 61,-0.00000006,-0.00000576,-0.00000252,0.00000006,-0.00001207,0.000010
 79,0.00000016,-0.00000258,-0.00000085,0.00000003,0.00012354,-0.0000057
 7,-0.00000147,0.00001923,0.00002578,-0.00000023,0.00001977,0.00066123,
 -0.00000016,-0.00018828,0.00001316,0.00000223,0.00030696,-0.00054556,-
 0.00000375,-0.00003139,0.00098457,0.00000036,-0.00174947,0.00093983,0.
 00002195,0.00011345,0.00009917,-0.00000131,-0.01118043,-0.02139964,0.0
 0012912,0.00340717,-0.00223082,-0.00004252,-0.09106442,-0.30381145,0.0
 0104409,0.09967045,0.32546775,-0.00000055,0.00000018,-0.00001670,-0.00
 000030,-0.00000006,-0.00003013,0.00000044,0.,0.00004426,-0.00000088,0.
 ,-0.00012401,-0.00000006,-0.00000009,0.00000763,-0.00000017,-0.0000007
 8,0.00002307,0.00000037,0.00000013,0.00001404,0.00000235,0.00000348,0.
 00010865,-0.00000046,0.00000015,0.00003241,0.00000520,-0.00001185,0.00
 021142,0.00003205,0.00000375,0.00108082,-0.00008456,0.00001316,-0.0072
 9567,-0.00000413,0.00000255,-0.00013897,-0.00010296,-0.00022273,0.0050
 5308,0.00016475,-0.00004204,0.01217449,0.00070602,0.00107351,-0.034786
 91,-0.00082189,-0.00114135,0.02099520,-0.00005952,0.00001313,0.0000005
 7,0.00000684,-0.00000576,0.00000044,-0.00001209,0.00000148,-0.00000022
 ,0.00007975,0.00003064,0.00000017,-0.00001853,-0.00001381,0.00000019,-
 0.00008007,-0.00006779,0.00000059,0.00000586,-0.00000239,0.00000075,0.
 00005625,0.00001007,-0.00000680,0.00000043,-0.00000935,0.00000015,0.00
 028339,0.00005112,-0.00000953,0.00015722,0.00003462,-0.00000515,0.0010
 6814,0.00314414,0.00011524,-0.00089473,-0.00005546,0.00001213,-0.01547
 848,-0.00463007,0.00023070,0.00116601,0.00025266,-0.00010602,-0.340844
 82,-0.03539146,0.00369687,-0.00616203,0.00056781,0.00010477,0.36072639
 ,0.00001741,0.00002142,-0.00000020,-0.00000019,-0.00000252,0.,0.000001
 48,-0.00000241,-0.00000001,0.00000019,-0.00002587,-0.00000002,0.000010
 82,0.00000493,-0.00000013,0.00003383,-0.00006762,-0.00000041,0.0000157
 3,0.00002886,-0.00000019,0.00019916,0.00054327,-0.00000222,-0.00013898
 ,0.00001963,0.00000165,-0.00025833,-0.00098298,0.00000300,0.00017069,0
 .00051003,-0.00000192,0.00108371,-0.00340896,-0.00001487,0.00121483,-0
 .00005231,-0.00001446,0.02839244,0.00572944,-0.00033713,0.00016859,0.0
 0132256,-0.00000072,-0.03985077,-0.06261367,0.00046883,-0.02713105,-0.
 00020087,0.00032198,0.03607042,0.05917707,0.00000057,-0.00000015,-0.00
 001207,0.00000044,0.00000006,0.00004426,-0.00000022,-0.00000001,-0.000
 03103,0.00000017,-0.00000038,0.00009399,0.00000020,0.00000017,-0.00000
 196,0.00000061,0.00000080,-0.00002949,0.00000075,0.00000002,0.00006897
 ,-0.00000677,0.00000003,-0.00051571,0.00000013,0.00000011,0.00001328,-
 0.00000957,-0.00000067,-0.00051899,-0.00000514,-0.00000030,-0.00027694
 ,0.00011495,-0.00003936,0.01072768,0.00001231,0.00000063,0.00012682,0.
 00023536,0.00005526,0.00398853,-0.00010603,-0.00000172,-0.00775821,0.0
 0369624,0.00041584,-0.02935145,0.00010086,-0.00000715,0.00264732,-0.00
 403486,-0.00042318,0.02078500\\0.00004253,-0.00004155,-0.00000051,-0.0
 0001348,-0.00003311,0.00000016,0.00002062,-0.00000114,-0.00000025,-0.0
 0006566,0.00003512,0.00000079,0.00002374,0.00002323,-0.00000028,0.0000
 8052,0.00008219,-0.00000095,-0.00001680,0.00000659,0.00000020,-0.00014
 082,0.00001972,0.00000168,0.00002203,-0.00002478,-0.00000027,0.0001400
 8,-0.00002088,-0.00000167,-0.00002269,0.00002601,0.00000027,-0.0000787
 1,-0.00008203,0.00000092,0.00001848,-0.00000626,-0.00000022,0.00006172
 ,-0.00003640,-0.00000074,-0.00002281,-0.00002462,0.00000027,-0.0000429
 7,0.00004327,0.00000052,0.00001428,0.00003353,-0.00000016,-0.00002007,
 0.00000114,0.00000024\\\@


 THERE'S SMALL CHOICE IN A BOWL OF ROTTEN APPLES.
                     SHAKESPEARE
 Job cpu time:  0 days  0 hours  2 minutes  1.4 seconds.
 File lengths (MBytes):  RWF=     49 Int=      0 D2E=      0 Chk=      3 Scr=      1
 Normal termination of Gaussian 09 at Tue Mar  2 15:52:52 2021.
