 Entering Gaussian System, Link 0=g09
 Input=/home/student/singh/other/oct02.com
 Output=/home/student/singh/other/oct02.log
 Initial command:
 /home/student/g09/l1.exe /home/student/singh/other/Gau-23380.inp -scrdir=/home/student/singh/other/
 Entering Link 1 = /home/student/g09/l1.exe PID=     23383.
  
 Copyright (c) 1988,1990,1992,1993,1995,1998,2003,2009,2011,
            Gaussian, Inc.  All Rights Reserved.
  
 This is part of the Gaussian(R) 09 program.  It is based on
 the Gaussian(R) 03 system (copyright 2003, Gaussian, Inc.),
 the Gaussian(R) 98 system (copyright 1998, Gaussian, Inc.),
 the Gaussian(R) 94 system (copyright 1995, Gaussian, Inc.),
 the Gaussian 92(TM) system (copyright 1992, Gaussian, Inc.),
 the Gaussian 90(TM) system (copyright 1990, Gaussian, Inc.),
 the Gaussian 88(TM) system (copyright 1988, Gaussian, Inc.),
 the Gaussian 86(TM) system (copyright 1986, Carnegie Mellon
 University), and the Gaussian 82(TM) system (copyright 1983,
 Carnegie Mellon University). Gaussian is a federally registered
 trademark of Gaussian, Inc.
  
 This software contains proprietary and confidential information,
 including trade secrets, belonging to Gaussian, Inc.
  
 This software is provided under written license and may be
 used, copied, transmitted, or stored only in accord with that
 written license.
  
 The following legend is applicable only to US Government
 contracts under FAR:
  
                    RESTRICTED RIGHTS LEGEND
  
 Use, reproduction and disclosure by the US Government is
 subject to restrictions as set forth in subparagraphs (a)
 and (c) of the Commercial Computer Software - Restricted
 Rights clause in FAR 52.227-19.
  
 Gaussian, Inc.
 340 Quinnipiac St., Bldg. 40, Wallingford CT 06492
  
  
 ---------------------------------------------------------------
 Warning -- This program may not be used in any manner that
 competes with the business of Gaussian, Inc. or will provide
 assistance to any competitor of Gaussian, Inc.  The licensee
 of this program is prohibited from giving any competitor of
 Gaussian, Inc. access to this program.  By using this program,
 the user acknowledges that Gaussian, Inc. is engaged in the
 business of creating and licensing software in the field of
 computational chemistry and represents and warrants to the
 licensee that it is not a competitor of Gaussian, Inc. and that
 it will not use this program in any manner prohibited above.
 ---------------------------------------------------------------
  

 Cite this work as:
 Gaussian 09, Revision C.01,
 M. J. Frisch, G. W. Trucks, H. B. Schlegel, G. E. Scuseria, 
 M. A. Robb, J. R. Cheeseman, G. Scalmani, V. Barone, B. Mennucci, 
 G. A. Petersson, H. Nakatsuji, M. Caricato, X. Li, H. P. Hratchian, 
 A. F. Izmaylov, J. Bloino, G. Zheng, J. L. Sonnenberg, M. Hada, 
 M. Ehara, K. Toyota, R. Fukuda, J. Hasegawa, M. Ishida, T. Nakajima, 
 Y. Honda, O. Kitao, H. Nakai, T. Vreven, J. A. Montgomery, Jr., 
 J. E. Peralta, F. Ogliaro, M. Bearpark, J. J. Heyd, E. Brothers, 
 K. N. Kudin, V. N. Staroverov, T. Keith, R. Kobayashi, J. Normand, 
 K. Raghavachari, A. Rendell, J. C. Burant, S. S. Iyengar, J. Tomasi, 
 M. Cossi, N. Rega, J. M. Millam, M. Klene, J. E. Knox, J. B. Cross, 
 V. Bakken, C. Adamo, J. Jaramillo, R. Gomperts, R. E. Stratmann, 
 O. Yazyev, A. J. Austin, R. Cammi, C. Pomelli, J. W. Ochterski, 
 R. L. Martin, K. Morokuma, V. G. Zakrzewski, G. A. Voth, 
 P. Salvador, J. J. Dannenberg, S. Dapprich, A. D. Daniels, 
 O. Farkas, J. B. Foresman, J. V. Ortiz, J. Cioslowski, 
 and D. J. Fox, Gaussian, Inc., Wallingford CT, 2010.
 
 ******************************************
 Gaussian 09:  EM64L-G09RevC.01 23-Sep-2011
                 2-Mar-2021 
 ******************************************
 %chk=oct02.chk
 ----------------------------------------
 # opt freq b3lyp/6-31g geom=connectivity
 ----------------------------------------
 1/14=-1,18=20,19=15,26=3,38=1,57=2/1,3;
 2/9=110,12=2,17=6,18=5,40=1/2;
 3/5=1,6=6,11=2,16=1,25=1,30=1,71=1,74=-5/1,2,3;
 4//1;
 5/5=2,38=5/2;
 6/7=2,8=2,9=2,10=2,28=1/1;
 7//1,2,3,16;
 1/14=-1,18=20,19=15/3(2);
 2/9=110/2;
 99//99;
 2/9=110/2;
 3/5=1,6=6,11=2,16=1,25=1,30=1,71=1,74=-5/1,2,3;
 4/5=5,16=3/1;
 5/5=2,38=5/2;
 7//1,2,3,16;
 1/14=-1,18=20,19=15/3(-5);
 2/9=110/2;
 6/7=2,8=2,9=2,10=2,19=2,28=1/1;
 99/9=1/99;
 -------------------
 Title Card Required
 -------------------
 Charge =  0 Multiplicity = 1
 Symbolic Z-Matrix:
 C                    -3.29745  -4.04923   0. 
 H                    -2.22816  -4.01053   0. 
 H                    -3.79671  -4.99562   0. 
 C                    -4.02161  -2.90374   0. 
 H                    -5.09091  -2.94245   0. 
 C                    -3.89584  -1.36888   0. 
 H                    -4.7769   -0.76173   0. 
 C                    -3.21359  -0.19794   0. 
 H                    -3.74124   0.73292   0. 
 C                    -1.67362  -0.20709   0. 
 H                    -1.53224   0.85353   0. 
 C                    -0.59817  -1.03169   0. 
 H                    -0.01863  -0.13223   0. 
 C                     0.1086   -2.39993   0. 
 H                     1.11365  -2.0328    0. 
 C                    -0.12253  -3.73527   0. 
 H                    -1.12538  -4.10837   0. 
 H                     0.70065  -4.41885   0. 
 

 GradGradGradGradGradGradGradGradGradGradGradGradGradGradGradGradGradGrad
 Berny optimization.
 Initialization pass.
                           ----------------------------
                           !    Initial Parameters    !
                           ! (Angstroms and Degrees)  !
 --------------------------                            --------------------------
 ! Name  Definition              Value          Derivative Info.                !
 --------------------------------------------------------------------------------
 ! R1    R(1,2)                  1.07           estimate D2E/DX2                !
 ! R2    R(1,3)                  1.07           estimate D2E/DX2                !
 ! R3    R(1,4)                  1.3552         estimate D2E/DX2                !
 ! R4    R(4,5)                  1.07           estimate D2E/DX2                !
 ! R5    R(4,6)                  1.54           estimate D2E/DX2                !
 ! R6    R(6,7)                  1.07           estimate D2E/DX2                !
 ! R7    R(6,8)                  1.3552         estimate D2E/DX2                !
 ! R8    R(8,9)                  1.07           estimate D2E/DX2                !
 ! R9    R(8,10)                 1.54           estimate D2E/DX2                !
 ! R10   R(10,11)                1.07           estimate D2E/DX2                !
 ! R11   R(10,12)                1.3552         estimate D2E/DX2                !
 ! R12   R(12,13)                1.07           estimate D2E/DX2                !
 ! R13   R(12,14)                1.54           estimate D2E/DX2                !
 ! R14   R(14,15)                1.07           estimate D2E/DX2                !
 ! R15   R(14,16)                1.3552         estimate D2E/DX2                !
 ! R16   R(16,17)                1.07           estimate D2E/DX2                !
 ! R17   R(16,18)                1.07           estimate D2E/DX2                !
 ! A1    A(2,1,3)              119.8865         estimate D2E/DX2                !
 ! A2    A(2,1,4)              120.2269         estimate D2E/DX2                !
 ! A3    A(3,1,4)              119.8865         estimate D2E/DX2                !
 ! A4    A(1,4,5)              120.2269         estimate D2E/DX2                !
 ! A5    A(1,4,6)              143.0152         estimate D2E/DX2                !
 ! A6    A(5,4,6)               96.7579         estimate D2E/DX2                !
 ! A7    A(4,6,7)              119.8865         estimate D2E/DX2                !
 ! A8    A(4,6,8)              154.4577         estimate D2E/DX2                !
 ! A9    A(7,6,8)               85.6557         estimate D2E/DX2                !
 ! A10   A(6,8,9)              120.2269         estimate D2E/DX2                !
 ! A11   A(6,8,10)             119.8865         estimate D2E/DX2                !
 ! A12   A(9,8,10)             119.8865         estimate D2E/DX2                !
 ! A13   A(8,10,11)             97.2523         estimate D2E/DX2                !
 ! A14   A(8,10,12)            142.8611         estimate D2E/DX2                !
 ! A15   A(11,10,12)           119.8865         estimate D2E/DX2                !
 ! A16   A(10,12,13)            85.3153         estimate D2E/DX2                !
 ! A17   A(10,12,14)           154.7982         estimate D2E/DX2                !
 ! A18   A(13,12,14)           119.8865         estimate D2E/DX2                !
 ! A19   A(12,14,15)            97.2523         estimate D2E/DX2                !
 ! A20   A(12,14,16)           142.8611         estimate D2E/DX2                !
 ! A21   A(15,14,16)           119.8865         estimate D2E/DX2                !
 ! A22   A(14,16,17)           120.2269         estimate D2E/DX2                !
 ! A23   A(14,16,18)           119.8865         estimate D2E/DX2                !
 ! A24   A(17,16,18)           119.8865         estimate D2E/DX2                !
 ! D1    D(2,1,4,5)            180.0            estimate D2E/DX2                !
 ! D2    D(2,1,4,6)              0.0            estimate D2E/DX2                !
 ! D3    D(3,1,4,5)              0.0            estimate D2E/DX2                !
 ! D4    D(3,1,4,6)            180.0            estimate D2E/DX2                !
 ! D5    D(1,4,6,7)            180.0            estimate D2E/DX2                !
 ! D6    D(1,4,6,8)              0.0            estimate D2E/DX2                !
 ! D7    D(5,4,6,7)              0.0            estimate D2E/DX2                !
 ! D8    D(5,4,6,8)            180.0            estimate D2E/DX2                !
 ! D9    D(4,6,8,9)            180.0            estimate D2E/DX2                !
 ! D10   D(4,6,8,10)             0.0            estimate D2E/DX2                !
 ! D11   D(7,6,8,9)              0.0            estimate D2E/DX2                !
 ! D12   D(7,6,8,10)           180.0            estimate D2E/DX2                !
 ! D13   D(6,8,10,11)          180.0            estimate D2E/DX2                !
 ! D14   D(6,8,10,12)            0.0            estimate D2E/DX2                !
 ! D15   D(9,8,10,11)            0.0            estimate D2E/DX2                !
 ! D16   D(9,8,10,12)          180.0            estimate D2E/DX2                !
 ! D17   D(8,10,12,13)         180.0            estimate D2E/DX2                !
 ! D18   D(8,10,12,14)           0.0            estimate D2E/DX2                !
 ! D19   D(11,10,12,13)          0.0            estimate D2E/DX2                !
 ! D20   D(11,10,12,14)        180.0            estimate D2E/DX2                !
 ! D21   D(10,12,14,15)        180.0            estimate D2E/DX2                !
 ! D22   D(10,12,14,16)          0.0            estimate D2E/DX2                !
 ! D23   D(13,12,14,15)          0.0            estimate D2E/DX2                !
 ! D24   D(13,12,14,16)        180.0            estimate D2E/DX2                !
 ! D25   D(12,14,16,17)          0.0            estimate D2E/DX2                !
 ! D26   D(12,14,16,18)        180.0            estimate D2E/DX2                !
 ! D27   D(15,14,16,17)        180.0            estimate D2E/DX2                !
 ! D28   D(15,14,16,18)          0.0            estimate D2E/DX2                !
 --------------------------------------------------------------------------------
 Trust Radius=3.00D-01 FncErr=1.00D-07 GrdErr=1.00D-06
 Number of steps in this run=     79 maximum allowed number of steps=    108.
 GradGradGradGradGradGradGradGradGradGradGradGradGradGradGradGradGradGrad

                          Input orientation:                          
 ---------------------------------------------------------------------
 Center     Atomic      Atomic             Coordinates (Angstroms)
 Number     Number       Type             X           Y           Z
 ---------------------------------------------------------------------
      1          6           0       -3.297455   -4.049234    0.000000
      2          1           0       -2.228155   -4.010526    0.000000
      3          1           0       -3.796708   -4.995620    0.000000
      4          6           0       -4.021612   -2.903738    0.000000
      5          1           0       -5.090912   -2.942446    0.000000
      6          6           0       -3.895837   -1.368882    0.000000
      7          1           0       -4.776898   -0.761732    0.000000
      8          6           0       -3.213594   -0.197938    0.000000
      9          1           0       -3.741236    0.732918    0.000000
     10          6           0       -1.673621   -0.207088    0.000000
     11          1           0       -1.532241    0.853531    0.000000
     12          6           0       -0.598170   -1.031692    0.000000
     13          1           0       -0.018627   -0.132231    0.000000
     14          6           0        0.108602   -2.399930    0.000000
     15          1           0        1.113647   -2.032800    0.000000
     16          6           0       -0.122532   -3.735274    0.000000
     17          1           0       -1.125378   -4.108368    0.000000
     18          1           0        0.700649   -4.418849    0.000000
 ---------------------------------------------------------------------
                    Distance matrix (angstroms):
                    1          2          3          4          5
     1  C    0.000000
     2  H    1.070000   0.000000
     3  H    1.070000   1.852234   0.000000
     4  C    1.355200   2.107479   2.103938   0.000000
     5  H    2.107479   3.055514   2.427032   1.070000   0.000000
     6  C    2.746334   3.124011   3.628092   1.540000   1.975932
     7  H    3.605055   4.129255   4.345869   2.271265   2.203207
     8  C    3.852209   3.937882   4.832988   2.823871   3.325154
     9  H    4.802700   4.978923   5.728807   3.647448   3.915346
    10  C    4.171202   3.843650   5.238086   3.575610   4.377221
    11  H    5.210863   4.913588   6.272191   4.507110   5.203228
    12  C    4.048666   3.395630   5.093464   3.901860   4.882183
    13  H    5.108192   4.463539   6.158445   4.868792   5.798740
    14  C    3.784366   2.838037   4.689249   4.160828   5.227740
    15  H    4.850137   3.883174   5.734971   5.208591   6.270885
    16  C    3.190409   2.123538   3.884334   3.986763   5.031240
    17  H    2.172882   1.107109   2.814822   3.136767   4.133380
    18  H    4.015152   2.957130   4.534191   4.959366   5.976783
                    6          7          8          9         10
     6  C    0.000000
     7  H    1.070000   0.000000
     8  C    1.355200   1.661862   0.000000
     9  H    2.107479   1.818399   1.070000   0.000000
    10  C    2.507591   3.152453   1.540000   2.271265   0.000000
    11  H    3.244335   3.624483   1.983062   2.212286   1.070000
    12  C    3.314861   4.187439   2.745102   3.604541   1.355200
    13  H    4.069651   4.799730   3.195642   3.821819   1.656686
    14  C    4.135044   5.152844   3.985693   4.963465   2.825752
    15  H    5.053288   6.026121   4.700184   5.587404   3.331979
    16  C    4.453947   5.523140   4.697596   5.749762   3.854086
    17  H    3.896181   4.953138   4.433070   5.502797   3.939614
    18  H    5.516337   6.586199   5.756508   6.802282   4.834882
                   11         12         13         14         15
    11  H    0.000000
    12  C    2.103938   0.000000
    13  H    1.806309   1.070000   0.000000
    14  C    3.643812   1.540000   2.271265   0.000000
    15  H    3.915562   1.983062   2.212286   1.070000   0.000000
    16  C    4.800459   2.745102   3.604541   1.355200   2.103938
    17  H    4.978552   3.121520   4.127295   2.107479   3.053066
    18  H    5.725712   3.627638   4.346545   2.103938   2.421528
                   16         17         18
    16  C    0.000000
    17  H    1.070000   0.000000
    18  H    1.070000   1.852234   0.000000
 Stoichiometry    C8H10
 Framework group  CS[SG(C8H10)]
 Deg. of freedom    33
 Full point group                 CS      NOp   2
 Largest Abelian subgroup         CS      NOp   2
 Largest concise Abelian subgroup C1      NOp   1
                         Standard orientation:                         
 ---------------------------------------------------------------------
 Center     Atomic      Atomic             Coordinates (Angstroms)
 Number     Number       Type             X           Y           Z
 ---------------------------------------------------------------------
      1          6           0        1.015058   -2.135980    0.000000
      2          1           0        1.575618   -1.224568    0.000000
      3          1           0        1.525948   -3.076135    0.000000
      4          6           0       -0.339756   -2.103663    0.000000
      5          1           0       -0.900316   -3.015075    0.000000
      6          6           0       -1.547457   -1.148122    0.000000
      7          1           0       -2.541199   -1.544829    0.000000
      8          6           0       -2.143800    0.068818    0.000000
      9          1           0       -3.211034    0.145702    0.000000
     10          6           0       -1.282486    1.345430    0.000000
     11          1           0       -2.086839    2.051062    0.000000
     12          6           0        0.000000    1.783377    0.000000
     13          1           0       -0.427326    2.764342    0.000000
     14          6           0        1.530559    1.613111    0.000000
     15          1           0        1.782161    2.653109    0.000000
     16          6           0        2.513805    0.680484    0.000000
     17          1           0        2.268385   -0.360991    0.000000
     18          1           0        3.539066    0.986652    0.000000
 ---------------------------------------------------------------------
 Rotational constants (GHZ):      2.1681211      1.6872718      0.9488552
 Standard basis: 6-31G (6D, 7F)
 There are    76 symmetry adapted basis functions of A'  symmetry.
 There are    16 symmetry adapted basis functions of A"  symmetry.
 Integral buffers will be    131072 words long.
 Raffenetti 2 integral format.
 Two-electron integral symmetry is turned on.
    92 basis functions,   216 primitive gaussians,    92 cartesian basis functions
    29 alpha electrons       29 beta electrons
       nuclear repulsion energy       312.5065579979 Hartrees.
 NAtoms=   18 NActive=   18 NUniq=   18 SFac= 1.00D+00 NAtFMM=   60 NAOKFM=F Big=F
 One-electron integrals computed using PRISM.
 NBasis=    92 RedAO= T  NBF=    76    16
 NBsUse=    92 1.00D-06 NBFU=    76    16
 Harris functional with IExCor=  402 diagonalized for initial guess.
 ExpMin= 1.61D-01 ExpMax= 3.05D+03 ExpMxC= 4.57D+02 IAcc=1 IRadAn=         1 AccDes= 0.00D+00
 HarFok:  IExCor=  402 AccDes= 0.00D+00 IRadAn=         1 IDoV= 1
 ScaDFX=  1.000000  1.000000  1.000000  1.000000
 FoFCou: FMM=F IPFlag=           0 FMFlag=      100000 FMFlg1=           0
         NFxFlg=           0 DoJE=T BraDBF=F KetDBF=T FulRan=T
         Omega=  0.000000  0.000000  1.000000  0.000000  0.000000 ICntrl=     500 IOpCl=  0
         NMat0=    1 NMatS0=    1 NMatT0=    0 NMatD0=    1 NMtDS0=    0 NMtDT0=    0
         I1Cent=           4 NGrid=           0.
 Petite list used in FoFCou.
 Initial guess orbital symmetries:
       Occupied  (A') (A') (A') (A') (A') (A') (A') (A') (A') (A')
                 (A') (A') (A') (A') (A') (A') (A') (A') (A') (A')
                 (A') (A') (A') (A") (A') (A") (A') (A") (A")
       Virtual   (A") (A") (A") (A") (A') (A') (A') (A') (A') (A')
                 (A') (A') (A') (A') (A') (A') (A') (A') (A') (A')
                 (A') (A') (A") (A') (A") (A") (A') (A") (A") (A')
                 (A') (A") (A') (A') (A') (A') (A") (A') (A") (A')
                 (A') (A') (A') (A') (A') (A') (A') (A') (A') (A')
                 (A') (A') (A') (A') (A') (A') (A') (A') (A') (A')
                 (A') (A') (A')
 The electronic state of the initial guess is 1-A'.
 Requested convergence on RMS density matrix=1.00D-08 within 128 cycles.
 Requested convergence on MAX density matrix=1.00D-06.
 Requested convergence on             energy=1.00D-06.
 No special actions if energy rises.
 Keep R1 ints in memory in canonical form, NReq=10262257.
 Integral accuracy reduced to 1.0D-05 until final iterations.
 Initial convergence to 1.0D-05 achieved.  Increase integral accuracy.
 SCF Done:  E(RB3LYP) =  -310.541665146     A.U. after   14 cycles
             Convg  =    0.7881D-08             -V/T =  2.0052

 **********************************************************************

            Population analysis using the SCF density.

 **********************************************************************

 Orbital symmetries:
       Occupied  (A') (A') (A') (A') (A') (A') (A') (A') (A') (A')
                 (A') (A') (A') (A') (A') (A') (A') (A') (A') (A')
                 (A') (A') (A') (A") (A') (A") (A') (A") (A")
       Virtual   (A") (A") (A') (A") (A') (A') (A") (A') (A') (A')
                 (A') (A') (A') (A') (A') (A') (A') (A') (A') (A')
                 (A') (A') (A") (A') (A") (A") (A') (A") (A") (A')
                 (A') (A") (A') (A') (A") (A') (A') (A') (A") (A')
                 (A') (A') (A') (A') (A') (A') (A') (A') (A') (A')
                 (A') (A') (A') (A') (A') (A') (A') (A') (A') (A')
                 (A') (A') (A')
 The electronic state is 1-A'.
 Alpha  occ. eigenvalues --  -10.20741 -10.20587 -10.19406 -10.19288 -10.19118
 Alpha  occ. eigenvalues --  -10.19102 -10.18470 -10.18241  -0.81603  -0.78774
 Alpha  occ. eigenvalues --   -0.76981  -0.73943  -0.65513  -0.60672  -0.57872
 Alpha  occ. eigenvalues --   -0.50773  -0.48812  -0.46933  -0.46165  -0.44653
 Alpha  occ. eigenvalues --   -0.40173  -0.37209  -0.37048  -0.33236  -0.31858
 Alpha  occ. eigenvalues --   -0.30176  -0.26882  -0.26596  -0.21232
 Alpha virt. eigenvalues --   -0.06393   0.00069   0.07118   0.07325   0.10730
 Alpha virt. eigenvalues --    0.11628   0.13752   0.14100   0.14755   0.16698
 Alpha virt. eigenvalues --    0.18728   0.19969   0.21790   0.25376   0.26024
 Alpha virt. eigenvalues --    0.30992   0.32255   0.34801   0.37674   0.47295
 Alpha virt. eigenvalues --    0.50152   0.50852   0.51055   0.54202   0.55819
 Alpha virt. eigenvalues --    0.56550   0.62583   0.62693   0.64418   0.65094
 Alpha virt. eigenvalues --    0.67412   0.68459   0.69124   0.70482   0.72025
 Alpha virt. eigenvalues --    0.72154   0.73305   0.76821   0.78096   0.82386
 Alpha virt. eigenvalues --    0.83686   0.88470   0.89399   0.91725   0.93019
 Alpha virt. eigenvalues --    0.93479   0.94090   0.95766   0.99817   1.02419
 Alpha virt. eigenvalues --    1.07930   1.09756   1.11110   1.14836   1.17730
 Alpha virt. eigenvalues --    1.18140   1.21232   1.25961   1.29862   1.35550
 Alpha virt. eigenvalues --    1.40510   1.57887   1.63029
          Condensed to atoms (all electrons):
              1          2          3          4          5          6
     1  C    5.041330   0.370646   0.365474   0.597791  -0.062392  -0.037510
     2  H    0.370646   0.653088  -0.052629  -0.018942   0.005661  -0.007278
     3  H    0.365474  -0.052629   0.567994  -0.016147  -0.009083   0.004477
     4  C    0.597791  -0.018942  -0.016147   4.831966   0.368455   0.377753
     5  H   -0.062392   0.005661  -0.009083   0.368455   0.627631  -0.047060
     6  C   -0.037510  -0.007278   0.004477   0.377753  -0.047060   5.006131
     7  H    0.004895  -0.000202  -0.000089  -0.034880  -0.013041   0.343750
     8  C   -0.004991   0.000965  -0.000005  -0.036843   0.008322   0.545258
     9  H   -0.000050  -0.000002   0.000001   0.003891  -0.000166  -0.044474
    10  C    0.000941  -0.000758   0.000001  -0.005745  -0.000188  -0.062321
    11  H   -0.000023   0.000017   0.000000   0.000246   0.000004   0.013776
    12  C    0.000842   0.001690  -0.000004   0.000310   0.000013  -0.014234
    13  H    0.000011  -0.000015   0.000000  -0.000010   0.000000  -0.000559
    14  C   -0.000292   0.006509   0.000015  -0.000094   0.000006   0.000618
    15  H   -0.000033  -0.000491   0.000001   0.000003   0.000000   0.000009
    16  C   -0.031889  -0.027543   0.000570   0.001680  -0.000064   0.000046
    17  H   -0.038870   0.003230   0.003446  -0.002001  -0.000027   0.000247
    18  H    0.001241  -0.000913  -0.000033  -0.000007   0.000000   0.000001
              7          8          9         10         11         12
     1  C    0.004895  -0.004991  -0.000050   0.000941  -0.000023   0.000842
     2  H   -0.000202   0.000965  -0.000002  -0.000758   0.000017   0.001690
     3  H   -0.000089  -0.000005   0.000001   0.000001   0.000000  -0.000004
     4  C   -0.034880  -0.036843   0.003891  -0.005745   0.000246   0.000310
     5  H   -0.013041   0.008322  -0.000166  -0.000188   0.000004   0.000013
     6  C    0.343750   0.545258  -0.044474  -0.062321   0.013776  -0.014234
     7  H    0.708040  -0.101303  -0.027777   0.020430  -0.001645   0.000744
     8  C   -0.101303   5.160345   0.368826   0.335752  -0.068683  -0.024086
     9  H   -0.027777   0.368826   0.591879  -0.033365  -0.001847   0.003623
    10  C    0.020430   0.335752  -0.033365   5.174964   0.370984   0.526323
    11  H   -0.001645  -0.068683  -0.001847   0.370984   0.692879  -0.076878
    12  C    0.000744  -0.024086   0.003623   0.526323  -0.076878   5.053696
    13  H    0.000019   0.013944  -0.000411  -0.097663  -0.036656   0.374190
    14  C   -0.000002  -0.002285  -0.000001  -0.028631   0.004284   0.375698
    15  H    0.000000  -0.000068   0.000001   0.008026  -0.000196  -0.043513
    16  C    0.000005   0.000323  -0.000001  -0.005061  -0.000108  -0.036644
    17  H    0.000007  -0.000103   0.000001   0.001087  -0.000007  -0.007638
    18  H    0.000000  -0.000002   0.000000   0.000023   0.000002   0.004066
             13         14         15         16         17         18
     1  C    0.000011  -0.000292  -0.000033  -0.031889  -0.038870   0.001241
     2  H   -0.000015   0.006509  -0.000491  -0.027543   0.003230  -0.000913
     3  H    0.000000   0.000015   0.000001   0.000570   0.003446  -0.000033
     4  C   -0.000010  -0.000094   0.000003   0.001680  -0.002001  -0.000007
     5  H    0.000000   0.000006   0.000000  -0.000064  -0.000027   0.000000
     6  C   -0.000559   0.000618   0.000009   0.000046   0.000247   0.000001
     7  H    0.000019  -0.000002   0.000000   0.000005   0.000007   0.000000
     8  C    0.013944  -0.002285  -0.000068   0.000323  -0.000103  -0.000002
     9  H   -0.000411  -0.000001   0.000001  -0.000001   0.000001   0.000000
    10  C   -0.097663  -0.028631   0.008026  -0.005061   0.001087   0.000023
    11  H   -0.036656   0.004284  -0.000196  -0.000108  -0.000007   0.000002
    12  C    0.374190   0.375698  -0.043513  -0.036644  -0.007638   0.004066
    13  H    0.659560  -0.029768  -0.011591   0.004505  -0.000077  -0.000096
    14  C   -0.029768   4.810681   0.360978   0.611286  -0.059286  -0.018071
    15  H   -0.011591   0.360978   0.624989  -0.057630   0.007727  -0.008444
    16  C    0.004505   0.611286  -0.057630   5.085525   0.356276   0.356195
    17  H   -0.000077  -0.059286   0.007727   0.356276   0.631941  -0.028281
    18  H   -0.000096  -0.018071  -0.008444   0.356195  -0.028281   0.560519
 Mulliken atomic charges:
              1
     1  C   -0.207122
     2  H    0.066967
     3  H    0.136012
     4  C   -0.067428
     5  H    0.121929
     6  C   -0.078628
     7  H    0.101050
     8  C   -0.195367
     9  H    0.139871
    10  C   -0.204799
    11  H    0.103852
    12  C   -0.138195
    13  H    0.124619
    14  C   -0.031647
    15  H    0.120232
    16  C   -0.257473
    17  H    0.132326
    18  H    0.133801
 Sum of Mulliken atomic charges =   0.00000
 Mulliken charges with hydrogens summed into heavy atoms:
              1
     1  C   -0.004143
     4  C    0.054501
     6  C    0.022422
     8  C   -0.055496
    10  C   -0.100947
    12  C   -0.013576
    14  C    0.088585
    16  C    0.008654
 Sum of Mulliken charges with hydrogens summed into heavy atoms =   0.00000
 Electronic spatial extent (au):  <R**2>=           1214.7440
 Charge=              0.0000 electrons
 Dipole moment (field-independent basis, Debye):
    X=             -0.1889    Y=             -0.1596    Z=              0.0000  Tot=              0.2473
 Quadrupole moment (field-independent basis, Debye-Ang):
   XX=            -41.1855   YY=            -44.3313   ZZ=            -54.1629
   XY=             -0.8873   XZ=              0.0000   YZ=              0.0000
 Traceless Quadrupole moment (field-independent basis, Debye-Ang):
   XX=              5.3744   YY=              2.2286   ZZ=             -7.6030
   XY=             -0.8873   XZ=              0.0000   YZ=              0.0000
 Octapole moment (field-independent basis, Debye-Ang**2):
  XXX=             -4.2015  YYY=             -1.8158  ZZZ=              0.0000  XYY=              2.2232
  XXY=              0.3303  XXZ=              0.0000  XZZ=             -0.2050  YZZ=             -0.1447
  YYZ=              0.0000  XYZ=              0.0000
 Hexadecapole moment (field-independent basis, Debye-Ang**3):
 XXXX=           -732.6209 YYYY=           -749.4959 ZZZZ=            -56.4257 XXXY=            -39.9392
 XXXZ=              0.0000 YYYX=            -50.1283 YYYZ=              0.0000 ZZZX=              0.0000
 ZZZY=              0.0000 XXYY=           -254.1569 XXZZ=           -161.7500 YYZZ=           -157.4950
 XXYZ=              0.0000 YYXZ=              0.0000 ZZXY=            -16.6442
 N-N= 3.125065579979D+02 E-N=-1.344189014519D+03  KE= 3.089215420886D+02
 Symmetry A'   KE= 3.004692711978D+02
 Symmetry A"   KE= 8.452270890861D+00
 Calling FoFJK, ICntrl=      2127 FMM=F ISym2X=1 I1Cent= 0 IOpClX= 0 NMat=1 NMatS=1 NMatT=0.
 ***** Axes restored to original set *****
 -------------------------------------------------------------------
 Center     Atomic                   Forces (Hartrees/Bohr)
 Number     Number              X              Y              Z
 -------------------------------------------------------------------
      1        6          -0.012522619    0.040462105    0.000000000
      2        1          -0.029406541   -0.003453339    0.000000000
      3        1          -0.004064959   -0.009122477    0.000000000
      4        6          -0.007089555    0.042170484    0.000000000
      5        1          -0.014771218   -0.022672852    0.000000000
      6        6          -0.019777894    0.014514956    0.000000000
      7        1          -0.060407123   -0.044081022    0.000000000
      8        6           0.115233152   -0.081055844    0.000000000
      9        1           0.001719740    0.011579275    0.000000000
     10        6          -0.103835629    0.009949989    0.000000000
     11        1           0.029248479    0.016048111    0.000000000
     12        6          -0.007621852    0.000731151    0.000000000
     13        1           0.065446009   -0.020374016    0.000000000
     14        6          -0.012248385    0.039404880    0.000000000
     15        1           0.021495747   -0.014004608    0.000000000
     16        6          -0.000068788    0.036295867    0.000000000
     17        1           0.031353685   -0.009695095    0.000000000
     18        1           0.007317750   -0.006697564    0.000000000
 -------------------------------------------------------------------
 Cartesian Forces:  Max     0.115233152 RMS     0.031362758

 GradGradGradGradGradGradGradGradGradGradGradGradGradGradGradGradGradGrad
 Berny optimization.
 Internal  Forces:  Max     0.295600412 RMS     0.065597352
 Search for a local minimum.
 Step number   1 out of a maximum of   79
 All quantities printed in internal units (Hartrees-Bohrs-Radians)
 Mixed Optimization -- RFO/linear search
 Second derivative matrix not updated -- first step.
 ITU=  0
     Eigenvalues ---    0.00237   0.00237   0.00237   0.01289   0.01290
     Eigenvalues ---    0.01463   0.01623   0.01623   0.01628   0.02681
     Eigenvalues ---    0.02681   0.02681   0.02681   0.02681   0.02681
     Eigenvalues ---    0.16000   0.16000   0.16000   0.16000   0.16000
     Eigenvalues ---    0.16000   0.16000   0.16000   0.16000   0.16000
     Eigenvalues ---    0.22000   0.22000   0.22000   0.22000   0.22000
     Eigenvalues ---    0.22000   0.28519   0.28519   0.28519   0.37230
     Eigenvalues ---    0.37230   0.37230   0.37230   0.37230   0.37230
     Eigenvalues ---    0.37230   0.37230   0.37230   0.37230   0.53930
     Eigenvalues ---    0.53930   0.53930   0.53930
 RFO step:  Lambda=-4.43877770D-01 EMin= 2.36824041D-03
 Linear search not attempted -- first point.
 Maximum step size (   0.300) exceeded in Quadratic search.
    -- Step size scaled by   0.367
 Iteration  1 RMS(Cart)=  0.38918279 RMS(Int)=  0.01632577
 Iteration  2 RMS(Cart)=  0.15181466 RMS(Int)=  0.00204564
 Iteration  3 RMS(Cart)=  0.00449956 RMS(Int)=  0.00000058
 Iteration  4 RMS(Cart)=  0.00000360 RMS(Int)=  0.00000000
 Iteration  5 RMS(Cart)=  0.00000000 RMS(Int)=  0.00000000
 ClnCor:  largest displacement from symmetrization is 3.84D-11 for atom    17.
 Variable       Old X    -DE/DX   Delta X   Delta X   Delta X     New X
                                 (Linear)    (Quad)   (Total)
    R1        2.02201  -0.02951   0.00000  -0.01328  -0.01328   2.00873
    R2        2.02201   0.00997   0.00000   0.00448   0.00448   2.02649
    R3        2.56096  -0.04815   0.00000  -0.01799  -0.01799   2.54297
    R4        2.02201   0.01558   0.00000   0.00701   0.00701   2.02902
    R5        2.91018  -0.04169   0.00000  -0.02100  -0.02100   2.88918
    R6        2.02201   0.02473   0.00000   0.01113   0.01113   2.03314
    R7        2.56096   0.05913   0.00000   0.02209   0.02209   2.58305
    R8        2.02201   0.00923   0.00000   0.00415   0.00415   2.02616
    R9        2.91018   0.03078   0.00000   0.01551   0.01551   2.92569
   R10        2.02201   0.01977   0.00000   0.00890   0.00890   2.03090
   R11        2.56096   0.06825   0.00000   0.02550   0.02550   2.58645
   R12        2.02201   0.01832   0.00000   0.00824   0.00824   2.03025
   R13        2.91018  -0.01829   0.00000  -0.00921  -0.00921   2.90097
   R14        2.02201   0.01539   0.00000   0.00692   0.00692   2.02893
   R15        2.56096  -0.02619   0.00000  -0.00979  -0.00979   2.55117
   R16        2.02201  -0.02600   0.00000  -0.01170  -0.01170   2.01030
   R17        2.02201   0.00991   0.00000   0.00446   0.00446   2.02647
    A1        2.09241  -0.00205   0.00000  -0.00125  -0.00125   2.09117
    A2        2.09836   0.00277   0.00000   0.00169   0.00169   2.10004
    A3        2.09241  -0.00072   0.00000  -0.00044  -0.00044   2.09198
    A4        2.09836  -0.03654   0.00000  -0.02145  -0.02145   2.07691
    A5        2.49609   0.02836   0.00000   0.01569   0.01569   2.51177
    A6        1.68874   0.00819   0.00000   0.00576   0.00576   1.69450
    A7        2.09241  -0.12365   0.00000  -0.07233  -0.07233   2.02008
    A8        2.69580   0.10460   0.00000   0.05787   0.05787   2.75367
    A9        1.49497   0.01905   0.00000   0.01446   0.01446   1.50944
   A10        2.09836  -0.14051   0.00000  -0.07734  -0.07734   2.02101
   A11        2.09241   0.29560   0.00000   0.16355   0.16355   2.25596
   A12        2.09241  -0.15509   0.00000  -0.08621  -0.08621   2.00621
   A13        1.69737  -0.08183   0.00000  -0.04378  -0.04378   1.65359
   A14        2.49340   0.21800   0.00000   0.12061   0.12061   2.61401
   A15        2.09241  -0.13617   0.00000  -0.07683  -0.07683   2.01558
   A16        1.48903  -0.00127   0.00000   0.00297   0.00297   1.49200
   A17        2.70174   0.13610   0.00000   0.07530   0.07530   2.77704
   A18        2.09241  -0.13483   0.00000  -0.07827  -0.07827   2.01415
   A19        1.69737  -0.01506   0.00000  -0.00719  -0.00719   1.69018
   A20        2.49340   0.07164   0.00000   0.03964   0.03964   2.53304
   A21        2.09241  -0.05658   0.00000  -0.03244  -0.03244   2.05997
   A22        2.09836   0.02666   0.00000   0.01622   0.01622   2.11457
   A23        2.09241  -0.01285   0.00000  -0.00781  -0.00781   2.08460
   A24        2.09241  -0.01382   0.00000  -0.00840  -0.00840   2.08401
    D1        3.14159   0.00000   0.00000   0.00000   0.00000   3.14159
    D2        0.00000   0.00000   0.00000   0.00000   0.00000   0.00000
    D3        0.00000   0.00000   0.00000   0.00000   0.00000   0.00000
    D4        3.14159   0.00000   0.00000   0.00000   0.00000   3.14159
    D5        3.14159   0.00000   0.00000   0.00000   0.00000   3.14159
    D6        0.00000   0.00000   0.00000   0.00000   0.00000   0.00000
    D7        0.00000   0.00000   0.00000   0.00000   0.00000   0.00000
    D8        3.14159   0.00000   0.00000   0.00000   0.00000   3.14159
    D9        3.14159   0.00000   0.00000   0.00000   0.00000   3.14159
   D10        0.00000   0.00000   0.00000   0.00000   0.00000   0.00000
   D11        0.00000   0.00000   0.00000   0.00000   0.00000   0.00000
   D12        3.14159   0.00000   0.00000   0.00000   0.00000   3.14159
   D13        3.14159   0.00000   0.00000   0.00000   0.00000   3.14159
   D14        0.00000   0.00000   0.00000   0.00000   0.00000   0.00000
   D15        0.00000   0.00000   0.00000   0.00000   0.00000   0.00000
   D16        3.14159   0.00000   0.00000   0.00000   0.00000   3.14159
   D17        3.14159   0.00000   0.00000   0.00000   0.00000   3.14159
   D18        0.00000   0.00000   0.00000   0.00000   0.00000   0.00000
   D19        0.00000   0.00000   0.00000   0.00000   0.00000   0.00000
   D20        3.14159   0.00000   0.00000   0.00000   0.00000   3.14159
   D21        3.14159   0.00000   0.00000   0.00000   0.00000   3.14159
   D22        0.00000   0.00000   0.00000   0.00000   0.00000   0.00000
   D23        0.00000   0.00000   0.00000   0.00000   0.00000   0.00000
   D24        3.14159   0.00000   0.00000   0.00000   0.00000   3.14159
   D25        0.00000   0.00000   0.00000   0.00000   0.00000   0.00000
   D26        3.14159   0.00000   0.00000   0.00000   0.00000   3.14159
   D27        3.14159   0.00000   0.00000   0.00000   0.00000   3.14159
   D28        0.00000   0.00000   0.00000   0.00000   0.00000   0.00000
         Item               Value     Threshold  Converged?
 Maximum Force            0.295600     0.000450     NO 
 RMS     Force            0.065597     0.000300     NO 
 Maximum Displacement     1.819311     0.001800     NO 
 RMS     Displacement     0.534638     0.001200     NO 
 Predicted change in Energy=-1.530701D-01
 GradGradGradGradGradGradGradGradGradGradGradGradGradGradGradGradGradGrad

                          Input orientation:                          
 ---------------------------------------------------------------------
 Center     Atomic      Atomic             Coordinates (Angstroms)
 Number     Number       Type             X           Y           Z
 ---------------------------------------------------------------------
      1          6           0       -4.052969   -4.162598    0.000000
      2          1           0       -3.010944   -4.372581    0.000000
      3          1           0       -4.759447   -4.969365    0.000000
      4          6           0       -4.489530   -2.889699    0.000000
      5          1           0       -5.546708   -2.702000    0.000000
      6          6           0       -4.038555   -1.428839    0.000000
      7          1           0       -4.826717   -0.696488    0.000000
      8          6           0       -3.171277   -0.372327    0.000000
      9          1           0       -3.621390    0.600815    0.000000
     10          6           0       -1.623075   -0.375707    0.000000
     11          1           0       -1.531858    0.695124    0.000000
     12          6           0       -0.441994   -1.067348    0.000000
     13          1           0        0.026254   -0.100394    0.000000
     14          6           0        0.519069   -2.264414    0.000000
     15          1           0        1.430390   -1.696746    0.000000
     16          6           0        0.610690   -3.611323    0.000000
     17          1           0       -0.260223   -4.222222    0.000000
     18          1           0        1.578204   -4.073786    0.000000
 ---------------------------------------------------------------------
                    Distance matrix (angstroms):
                    1          2          3          4          5
     1  C    0.000000
     2  H    1.062972   0.000000
     3  H    1.072373   1.847542   0.000000
     4  C    1.345681   2.094076   2.097109   0.000000
     5  H    2.089163   3.036600   2.400151   1.073711   0.000000
     6  C    2.733797   3.117949   3.613172   1.528886   1.973693
     7  H    3.551423   4.100084   4.273406   2.218979   2.130836
     8  C    3.891469   4.003466   4.863645   2.841646   3.327168
     9  H    4.782924   5.010720   5.685251   3.596854   3.823013
    10  C    4.499436   4.230979   5.562241   3.812706   4.561418
    11  H    5.472975   5.279140   6.519491   4.647449   5.259226
    12  C    4.756018   4.186176   5.819461   4.438864   5.360054
    13  H    5.756870   5.241770   6.827137   5.307780   6.150305
    14  C    4.950417   4.111612   5.931229   5.047479   6.081539
    15  H    6.012292   5.185127   7.001722   6.038923   7.049144
    16  C    4.696128   3.700776   5.539191   5.151018   6.224180
    17  H    3.793215   2.754827   4.560837   4.434260   5.500727
    18  H    5.631873   4.598865   6.400615   6.182189   7.255767
                    6          7          8          9         10
     6  C    0.000000
     7  H    1.075889   0.000000
     8  C    1.366889   1.686879   0.000000
     9  H    2.072081   1.770821   1.072197   0.000000
    10  C    2.635076   3.219662   1.548206   2.224153   0.000000
    11  H    3.285535   3.576685   1.956309   2.091659   1.074709
    12  C    3.614681   4.400378   2.816388   3.590449   1.368692
    13  H    4.276381   4.889443   3.209073   3.714431   1.672149
    14  C    4.633585   5.570979   4.147125   5.035169   2.855870
    15  H    5.475503   6.336553   4.788468   5.549709   3.326979
    16  C    5.136021   6.169413   4.979395   5.970980   3.931783
    17  H    4.698806   5.769200   4.826585   5.878701   4.080814
    18  H    6.208359   7.240797   6.021492   6.991972   4.891214
                   11         12         13         14         15
    11  H    0.000000
    12  C    2.072223   0.000000
    13  H    1.749446   1.074363   0.000000
    14  C    3.600717   1.535125   2.219425   0.000000
    15  H    3.807355   1.975339   2.126014   1.073664   0.000000
    16  C    4.809989   2.753171   3.559239   1.350022   2.082670
    17  H    5.079108   3.160106   4.131771   2.107203   3.039112
    18  H    5.693416   3.622136   4.265722   2.096567   2.381631
                   16         17         18
    16  C    0.000000
    17  H    1.063807   0.000000
    18  H    1.072360   1.844409   0.000000
 Stoichiometry    C8H10
 Framework group  CS[SG(C8H10)]
 Deg. of freedom    33
 Full point group                 CS      NOp   2
 Largest Abelian subgroup         CS      NOp   2
 Largest concise Abelian subgroup C1      NOp   1
                         Standard orientation:                         
 ---------------------------------------------------------------------
 Center     Atomic      Atomic             Coordinates (Angstroms)
 Number     Number       Type             X           Y           Z
 ---------------------------------------------------------------------
      1          6           0       -1.343115   -2.564204    0.000000
      2          1           0       -0.282637   -2.491437    0.000000
      3          1           0       -1.811355   -3.528950    0.000000
      4          6           0       -2.100450   -1.451863    0.000000
      5          1           0       -3.169655   -1.550125    0.000000
      6          6           0       -2.051437    0.076237    0.000000
      7          1           0       -3.005075    0.574346    0.000000
      8          6           0       -1.494090    1.324336    0.000000
      9          1           0       -2.185302    2.143989    0.000000
     10          6           0        0.000000    1.730091    0.000000
     11          1           0       -0.194924    2.786975    0.000000
     12          6           0        1.321841    1.375050    0.000000
     13          1           0        1.517996    2.431354    0.000000
     14          6           0        2.565008    0.474414    0.000000
     15          1           0        3.293981    1.262674    0.000000
     16          6           0        3.009211   -0.800436    0.000000
     17          1           0        2.330632   -1.619714    0.000000
     18          1           0        4.064527   -0.990863    0.000000
 ---------------------------------------------------------------------
 Rotational constants (GHZ):      2.3089489      1.1383780      0.7624622
 Standard basis: 6-31G (6D, 7F)
 There are    76 symmetry adapted basis functions of A'  symmetry.
 There are    16 symmetry adapted basis functions of A"  symmetry.
 Integral buffers will be    131072 words long.
 Raffenetti 2 integral format.
 Two-electron integral symmetry is turned on.
    92 basis functions,   216 primitive gaussians,    92 cartesian basis functions
    29 alpha electrons       29 beta electrons
       nuclear repulsion energy       298.0546971592 Hartrees.
 NAtoms=   18 NActive=   18 NUniq=   18 SFac= 1.00D+00 NAtFMM=   60 NAOKFM=F Big=F
 One-electron integrals computed using PRISM.
 NBasis=    92 RedAO= T  NBF=    76    16
 NBsUse=    92 1.00D-06 NBFU=    76    16
 Initial guess read from the read-write file.
 B after Tr=     0.000000    0.000000    0.000000
         Rot=    1.000000    0.000000    0.000000    0.000000 Ang=   0.00 deg.
 Initial guess orbital symmetries:
       Occupied  (A') (A') (A') (A') (A') (A') (A') (A') (A') (A')
                 (A') (A') (A') (A') (A') (A') (A') (A') (A') (A')
                 (A') (A') (A') (A") (A') (A") (A') (A") (A")
       Virtual   (A") (A") (A') (A") (A') (A') (A") (A') (A') (A')
                 (A') (A') (A') (A') (A') (A') (A') (A') (A') (A')
                 (A') (A') (A") (A') (A") (A") (A') (A") (A") (A')
                 (A') (A") (A') (A') (A") (A') (A') (A') (A") (A')
                 (A') (A') (A') (A') (A') (A') (A') (A') (A') (A')
                 (A') (A') (A') (A') (A') (A') (A') (A') (A') (A')
                 (A') (A') (A')
 Harris functional with IExCor=  402 diagonalized for initial guess.
 ExpMin= 1.61D-01 ExpMax= 3.05D+03 ExpMxC= 4.57D+02 IAcc=1 IRadAn=         1 AccDes= 0.00D+00
 HarFok:  IExCor=  402 AccDes= 0.00D+00 IRadAn=         1 IDoV= 1
 ScaDFX=  1.000000  1.000000  1.000000  1.000000
 FoFCou: FMM=F IPFlag=           0 FMFlag=      100000 FMFlg1=           0
         NFxFlg=           0 DoJE=T BraDBF=F KetDBF=T FulRan=T
         Omega=  0.000000  0.000000  1.000000  0.000000  0.000000 ICntrl=     500 IOpCl=  0
         NMat0=    1 NMatS0=    1 NMatT0=    0 NMatD0=    1 NMtDS0=    0 NMtDT0=    0
         I1Cent=           4 NGrid=           0.
 Petite list used in FoFCou.
 Requested convergence on RMS density matrix=1.00D-08 within 128 cycles.
 Requested convergence on MAX density matrix=1.00D-06.
 Requested convergence on             energy=1.00D-06.
 No special actions if energy rises.
 Keep R1 ints in memory in canonical form, NReq=10263154.
 Integral accuracy reduced to 1.0D-05 until final iterations.
 Initial convergence to 1.0D-05 achieved.  Increase integral accuracy.
 SCF Done:  E(RB3LYP) =  -310.564171507     A.U. after   15 cycles
             Convg  =    0.5881D-08             -V/T =  2.0059
 Calling FoFJK, ICntrl=      2127 FMM=F ISym2X=1 I1Cent= 0 IOpClX= 0 NMat=1 NMatS=1 NMatT=0.
 ***** Axes restored to original set *****
 -------------------------------------------------------------------
 Center     Atomic                   Forces (Hartrees/Bohr)
 Number     Number              X              Y              Z
 -------------------------------------------------------------------
      1        6           0.007243555    0.029183558    0.000000000
      2        1           0.015854462   -0.009358735    0.000000000
      3        1          -0.003688872   -0.006760102    0.000000000
      4        6          -0.004173667    0.045886763    0.000000000
      5        1          -0.016141986   -0.018150840    0.000000000
      6        6          -0.010454691    0.020532544    0.000000000
      7        1          -0.054910326   -0.032318572    0.000000000
      8        6           0.092693702   -0.084973579    0.000000000
      9        1           0.005103764    0.012030186    0.000000000
     10        6          -0.091094694   -0.001502734    0.000000000
     11        1           0.022528976    0.014207425    0.000000000
     12        6          -0.006892162    0.006899595    0.000000000
     13        1           0.060759350   -0.014392462    0.000000000
     14        6          -0.014486375    0.038901179    0.000000000
     15        1           0.020906893   -0.009394516    0.000000000
     16        6          -0.018582996    0.027625845    0.000000000
     17        1          -0.010870330   -0.013603901    0.000000000
     18        1           0.006205396   -0.004811655    0.000000000
 -------------------------------------------------------------------
 Cartesian Forces:  Max     0.092693702 RMS     0.027660352

 GradGradGradGradGradGradGradGradGradGradGradGradGradGradGradGradGradGrad
 Berny optimization.
 Using GEDIIS/GDIIS optimizer.
 Internal  Forces:  Max     0.101675341 RMS     0.028206103
 Search for a local minimum.
 Step number   2 out of a maximum of   79
 All quantities printed in internal units (Hartrees-Bohrs-Radians)
 Mixed Optimization -- RFO/linear search
 Update second derivatives using D2CorX and points    1    2
 DE= -2.25D-02 DEPred=-1.53D-01 R= 1.47D-01
 Trust test= 1.47D-01 RLast= 3.00D-01 DXMaxT set to 3.00D-01
 ITU=  0  0
 Use linear search instead of GDIIS.
     Eigenvalues ---    0.00237   0.00237   0.00237   0.01334   0.01339
     Eigenvalues ---    0.01468   0.01580   0.01602   0.01613   0.02681
     Eigenvalues ---    0.02681   0.02681   0.02681   0.02681   0.02681
     Eigenvalues ---    0.14804   0.16000   0.16000   0.16000   0.16000
     Eigenvalues ---    0.16000   0.16000   0.16000   0.16000   0.16011
     Eigenvalues ---    0.21027   0.22000   0.22000   0.22000   0.22000
     Eigenvalues ---    0.28231   0.28457   0.28519   0.36988   0.37077
     Eigenvalues ---    0.37230   0.37230   0.37230   0.37230   0.37230
     Eigenvalues ---    0.37230   0.37230   0.37230   0.52591   0.53918
     Eigenvalues ---    0.53930   0.53930   2.30783
 RFO step:  Lambda=-4.52472199D-02 EMin= 2.36824041D-03
 Quartic linear search produced a step of -0.52012.
 Maximum step size (   0.300) exceeded in Quadratic search.
    -- Step size scaled by   0.663
 Iteration  1 RMS(Cart)=  0.27499696 RMS(Int)=  0.01087585
 Iteration  2 RMS(Cart)=  0.03976907 RMS(Int)=  0.00018684
 Iteration  3 RMS(Cart)=  0.00041676 RMS(Int)=  0.00000003
 Iteration  4 RMS(Cart)=  0.00000007 RMS(Int)=  0.00000000
 ClnCor:  largest displacement from symmetrization is 2.86D-10 for atom     1.
 Variable       Old X    -DE/DX   Delta X   Delta X   Delta X     New X
                                 (Linear)    (Quad)   (Total)
    R1        2.00873   0.01739   0.00691   0.00232   0.00922   2.01795
    R2        2.02649   0.00752  -0.00233   0.00915   0.00682   2.03331
    R3        2.54297  -0.00607   0.00936  -0.02014  -0.01078   2.53218
    R4        2.02902   0.01272  -0.00365   0.01503   0.01139   2.04041
    R5        2.88918  -0.03872   0.01092  -0.05028  -0.03936   2.84982
    R6        2.03314   0.01823  -0.00579   0.02240   0.01661   2.04975
    R7        2.58305   0.01962  -0.01149   0.03118   0.01969   2.60274
    R8        2.02616   0.00878  -0.00216   0.00982   0.00766   2.03382
    R9        2.92569  -0.03162  -0.00807  -0.01934  -0.02741   2.89828
   R10        2.03090   0.01607  -0.00463   0.01902   0.01439   2.04530
   R11        2.58645   0.01619  -0.01326   0.03257   0.01931   2.60576
   R12        2.03025   0.01353  -0.00429   0.01661   0.01233   2.04258
   R13        2.90097  -0.04072   0.00479  -0.04432  -0.03953   2.86144
   R14        2.02893   0.01278  -0.00360   0.01500   0.01140   2.04033
   R15        2.55117  -0.01076   0.00509  -0.01491  -0.00982   2.54135
   R16        2.01030   0.01671   0.00609   0.00307   0.00916   2.01946
   R17        2.02647   0.00767  -0.00232   0.00925   0.00693   2.03340
    A1        2.09117  -0.00518   0.00065  -0.00817  -0.00752   2.08365
    A2        2.10004   0.00696  -0.00088   0.01098   0.01010   2.11014
    A3        2.09198  -0.00178   0.00023  -0.00281  -0.00258   2.08939
    A4        2.07691   0.00225   0.01116  -0.01232  -0.00116   2.07575
    A5        2.51177  -0.04647  -0.00816  -0.04631  -0.05447   2.45730
    A6        1.69450   0.04423  -0.00300   0.05863   0.05564   1.75014
    A7        2.02008  -0.02357   0.03762  -0.07552  -0.03790   1.98218
    A8        2.75367  -0.07698  -0.03010  -0.06049  -0.09059   2.66308
    A9        1.50944   0.10055  -0.00752   0.13601   0.12849   1.63793
   A10        2.02101   0.00576   0.04023  -0.03031   0.00992   2.03093
   A11        2.25596   0.00810  -0.08506   0.09271   0.00765   2.26361
   A12        2.00621  -0.01386   0.04484  -0.06240  -0.01756   1.98865
   A13        1.65359   0.04982   0.02277   0.03947   0.06225   1.71584
   A14        2.61401  -0.05650  -0.06273  -0.00463  -0.06736   2.54665
   A15        2.01558   0.00668   0.03996  -0.03485   0.00511   2.02070
   A16        1.49200   0.10168  -0.00154   0.13205   0.13051   1.62251
   A17        2.77704  -0.07959  -0.03916  -0.05466  -0.09383   2.68321
   A18        2.01415  -0.02209   0.04071  -0.07739  -0.03668   1.97747
   A19        1.69018   0.04278   0.00374   0.05000   0.05374   1.74392
   A20        2.53304  -0.04695  -0.02062  -0.03468  -0.05530   2.47774
   A21        2.05997   0.00417   0.01688  -0.01532   0.00156   2.06153
   A22        2.11457   0.00543  -0.00844   0.01271   0.00428   2.11885
   A23        2.08460  -0.00103   0.00406  -0.00372   0.00034   2.08494
   A24        2.08401  -0.00441   0.00437  -0.00899  -0.00462   2.07939
    D1        3.14159   0.00000   0.00000   0.00000   0.00000   3.14159
    D2        0.00000   0.00000   0.00000   0.00000   0.00000   0.00000
    D3        0.00000   0.00000   0.00000   0.00000   0.00000   0.00000
    D4        3.14159   0.00000   0.00000   0.00000   0.00000   3.14159
    D5        3.14159   0.00000   0.00000   0.00000   0.00000   3.14159
    D6        0.00000   0.00000   0.00000   0.00000   0.00000   0.00000
    D7        0.00000   0.00000   0.00000   0.00000   0.00000   0.00000
    D8        3.14159   0.00000   0.00000   0.00000   0.00000   3.14159
    D9        3.14159   0.00000   0.00000   0.00000   0.00000   3.14159
   D10        0.00000   0.00000   0.00000   0.00000   0.00000   0.00000
   D11        0.00000   0.00000   0.00000   0.00000   0.00000   0.00000
   D12        3.14159   0.00000   0.00000   0.00000   0.00000   3.14159
   D13        3.14159   0.00000   0.00000   0.00000   0.00000   3.14159
   D14        0.00000   0.00000   0.00000   0.00000   0.00000   0.00000
   D15        0.00000   0.00000   0.00000   0.00000   0.00000   0.00000
   D16        3.14159   0.00000   0.00000   0.00000   0.00000   3.14159
   D17        3.14159   0.00000   0.00000   0.00000   0.00000   3.14159
   D18        0.00000   0.00000   0.00000   0.00000   0.00000   0.00000
   D19        0.00000   0.00000   0.00000   0.00000   0.00000   0.00000
   D20        3.14159   0.00000   0.00000   0.00000   0.00000   3.14159
   D21        3.14159   0.00000   0.00000   0.00000   0.00000   3.14159
   D22        0.00000   0.00000   0.00000   0.00000   0.00000   0.00000
   D23        0.00000   0.00000   0.00000   0.00000   0.00000   0.00000
   D24        3.14159   0.00000   0.00000   0.00000   0.00000   3.14159
   D25        0.00000   0.00000   0.00000   0.00000   0.00000   0.00000
   D26        3.14159   0.00000   0.00000   0.00000   0.00000   3.14159
   D27        3.14159   0.00000   0.00000   0.00000   0.00000   3.14159
   D28        0.00000   0.00000   0.00000   0.00000   0.00000   0.00000
         Item               Value     Threshold  Converged?
 Maximum Force            0.101675     0.000450     NO 
 RMS     Force            0.028206     0.000300     NO 
 Maximum Displacement     1.053429     0.001800     NO 
 RMS     Displacement     0.309778     0.001200     NO 
 Predicted change in Energy=-3.350252D-02
 GradGradGradGradGradGradGradGradGradGradGradGradGradGradGradGradGradGrad

                          Input orientation:                          
 ---------------------------------------------------------------------
 Center     Atomic      Atomic             Coordinates (Angstroms)
 Number     Number       Type             X           Y           Z
 ---------------------------------------------------------------------
      1          6           0       -3.640157   -4.073076    0.000000
      2          1           0       -2.573017   -4.112078    0.000000
      3          1           0       -4.201996   -4.990723    0.000000
      4          6           0       -4.285881   -2.898950    0.000000
      5          1           0       -5.365614   -2.896644    0.000000
      6          6           0       -4.013699   -1.415656    0.000000
      7          1           0       -4.913272   -0.809604    0.000000
      8          6           0       -3.169254   -0.327585    0.000000
      9          1           0       -3.638035    0.641211    0.000000
     10          6           0       -1.636379   -0.277260    0.000000
     11          1           0       -1.515171    0.798256    0.000000
     12          6           0       -0.469647   -1.012196    0.000000
     13          1           0        0.152950   -0.128632    0.000000
     14          6           0        0.322186   -2.302866    0.000000
     15          1           0        1.325993   -1.905224    0.000000
     16          6           0        0.169789   -3.639027    0.000000
     17          1           0       -0.799571   -4.088873    0.000000
     18          1           0        1.040699   -4.270970    0.000000
 ---------------------------------------------------------------------
                    Distance matrix (angstroms):
                    1          2          3          4          5
     1  C    0.000000
     2  H    1.067853   0.000000
     3  H    1.075983   1.850835   0.000000
     4  C    1.339974   2.098948   2.093455   0.000000
     5  H    2.088347   3.045633   2.395658   1.079736   0.000000
     6  C    2.683544   3.057164   3.580022   1.508059   2.005243
     7  H    3.503009   4.047608   4.241188   2.181510   2.135498
     8  C    3.774977   3.831173   4.776130   2.803350   3.379950
     9  H    4.714287   4.871141   5.660100   3.598950   3.937124
    10  C    4.292242   3.947545   5.366482   3.727347   4.557233
    11  H    5.314644   5.022989   6.382109   4.620191   5.336497
    12  C    4.406940   3.746122   5.455191   4.257168   5.246107
    13  H    5.472321   4.826876   6.527288   5.232388   6.173852
    14  C    4.339793   3.414007   5.262395   4.646461   5.718710
    15  H    5.418693   4.480233   6.330795   5.699178   6.764653
    16  C    3.834592   2.783301   4.575980   4.516715   5.584964
    17  H    2.840630   1.773597   3.519919   3.683785   4.719127
    18  H    4.685038   3.617207   5.291870   5.500445   6.552070
                    6          7          8          9         10
     6  C    0.000000
     7  H    1.084680   0.000000
     8  C    1.377312   1.809403   0.000000
     9  H    2.090891   1.931604   1.076253   0.000000
    10  C    2.635830   3.319852   1.533701   2.202321   0.000000
    11  H    3.338271   3.759296   2.000877   2.128665   1.082325
    12  C    3.566944   4.448241   2.785063   3.573855   1.378911
    13  H    4.360894   5.111783   3.328156   3.868362   1.795491
    14  C    4.425725   5.444250   4.011470   4.934667   2.817633
    15  H    5.362089   6.334731   4.764053   5.579060   3.380224
    16  C    4.737611   5.817487   4.702644   5.728871   3.816244
    17  H    4.180515   5.260812   4.445524   5.516391   3.902389
    18  H    5.805149   6.887004   5.768361   6.783810   4.807959
                   11         12         13         14         15
    11  H    0.000000
    12  C    2.090660   0.000000
    13  H    1.908337   1.080885   0.000000
    14  C    3.604559   1.514208   2.180811   0.000000
    15  H    3.921865   2.005448   2.128923   1.079698   0.000000
    16  C    4.746428   2.703538   3.510436   1.344824   2.083958
    17  H    4.939243   3.094316   4.073182   2.109066   3.047351
    18  H    5.677106   3.591762   4.236398   2.095160   2.382886
                   16         17         18
    16  C    0.000000
    17  H    1.068654   0.000000
    18  H    1.076028   1.849258   0.000000
 Stoichiometry    C8H10
 Framework group  CS[SG(C8H10)]
 Deg. of freedom    33
 Full point group                 CS      NOp   2
 Largest Abelian subgroup         CS      NOp   2
 Largest concise Abelian subgroup C1      NOp   1
                         Standard orientation:                         
 ---------------------------------------------------------------------
 Center     Atomic      Atomic             Coordinates (Angstroms)
 Number     Number       Type             X           Y           Z
 ---------------------------------------------------------------------
      1          6           0       -1.001096   -2.370032    0.000000
      2          1           0        0.042449   -2.143484    0.000000
      3          1           0       -1.318121   -3.398251    0.000000
      4          6           0       -1.917531   -1.392444    0.000000
      5          1           0       -2.964187   -1.657664    0.000000
      6          6           0       -2.021249    0.112044    0.000000
      7          1           0       -3.042909    0.476382    0.000000
      8          6           0       -1.472639    1.375379    0.000000
      9          1           0       -2.166785    2.197864    0.000000
     10          6           0        0.000000    1.803834    0.000000
     11          1           0       -0.148979    2.875856    0.000000
     12          6           0        1.312418    1.380805    0.000000
     13          1           0        1.696750    2.391053    0.000000
     14          6           0        2.399277    0.326497    0.000000
     15          1           0        3.273305    0.960394    0.000000
     16          6           0        2.582602   -1.005773    0.000000
     17          1           0        1.754879   -1.681714    0.000000
     18          1           0        3.582905   -1.402295    0.000000
 ---------------------------------------------------------------------
 Rotational constants (GHZ):      2.2625749      1.3850089      0.8591129
 Standard basis: 6-31G (6D, 7F)
 There are    76 symmetry adapted basis functions of A'  symmetry.
 There are    16 symmetry adapted basis functions of A"  symmetry.
 Integral buffers will be    131072 words long.
 Raffenetti 2 integral format.
 Two-electron integral symmetry is turned on.
    92 basis functions,   216 primitive gaussians,    92 cartesian basis functions
    29 alpha electrons       29 beta electrons
       nuclear repulsion energy       305.0958523690 Hartrees.
 NAtoms=   18 NActive=   18 NUniq=   18 SFac= 1.00D+00 NAtFMM=   60 NAOKFM=F Big=F
 One-electron integrals computed using PRISM.
 NBasis=    92 RedAO= T  NBF=    76    16
 NBsUse=    92 1.00D-06 NBFU=    76    16
 Initial guess read from the read-write file.
 B after Tr=     0.000000    0.000000    0.000000
         Rot=    1.000000    0.000000    0.000000    0.000000 Ang=   0.00 deg.
 Initial guess orbital symmetries:
       Occupied  (A') (A') (A') (A') (A') (A') (A') (A') (A') (A')
                 (A') (A') (A') (A') (A') (A') (A') (A') (A') (A')
                 (A') (A') (A') (A') (A") (A") (A') (A") (A")
       Virtual   (A") (A") (A') (A") (A') (A') (A') (A') (A") (A')
                 (A') (A') (A') (A') (A') (A') (A') (A') (A') (A')
                 (A') (A') (A") (A') (A") (A') (A") (A") (A') (A")
                 (A') (A") (A') (A') (A') (A") (A') (A') (A') (A")
                 (A') (A') (A') (A') (A') (A') (A') (A') (A') (A')
                 (A') (A') (A') (A') (A') (A') (A') (A') (A') (A')
                 (A') (A') (A')
 Harris functional with IExCor=  402 diagonalized for initial guess.
 ExpMin= 1.61D-01 ExpMax= 3.05D+03 ExpMxC= 4.57D+02 IAcc=1 IRadAn=         1 AccDes= 0.00D+00
 HarFok:  IExCor=  402 AccDes= 0.00D+00 IRadAn=         1 IDoV= 1
 ScaDFX=  1.000000  1.000000  1.000000  1.000000
 FoFCou: FMM=F IPFlag=           0 FMFlag=      100000 FMFlg1=           0
         NFxFlg=           0 DoJE=T BraDBF=F KetDBF=T FulRan=T
         Omega=  0.000000  0.000000  1.000000  0.000000  0.000000 ICntrl=     500 IOpCl=  0
         NMat0=    1 NMatS0=    1 NMatT0=    0 NMatD0=    1 NMtDS0=    0 NMtDT0=    0
         I1Cent=           4 NGrid=           0.
 Petite list used in FoFCou.
 Requested convergence on RMS density matrix=1.00D-08 within 128 cycles.
 Requested convergence on MAX density matrix=1.00D-06.
 Requested convergence on             energy=1.00D-06.
 No special actions if energy rises.
 Keep R1 ints in memory in canonical form, NReq=10263133.
 Integral accuracy reduced to 1.0D-05 until final iterations.
 Initial convergence to 1.0D-05 achieved.  Increase integral accuracy.
 SCF Done:  E(RB3LYP) =  -310.618847648     A.U. after   14 cycles
             Convg  =    0.4128D-08             -V/T =  2.0062
 Calling FoFJK, ICntrl=      2127 FMM=F ISym2X=1 I1Cent= 0 IOpClX= 0 NMat=1 NMatS=1 NMatT=0.
 ***** Axes restored to original set *****
 -------------------------------------------------------------------
 Center     Atomic                   Forces (Hartrees/Bohr)
 Number     Number              X              Y              Z
 -------------------------------------------------------------------
      1        6           0.003287885    0.017219240    0.000000000
      2        1           0.008813777   -0.005280205    0.000000000
      3        1          -0.000780455   -0.005723065    0.000000000
      4        6          -0.010048075    0.040798111    0.000000000
      5        1          -0.008285551   -0.016392565    0.000000000
      6        6          -0.007615769    0.029696080    0.000000000
      7        1          -0.029961537   -0.026279498    0.000000000
      8        6           0.071882680   -0.073235815    0.000000000
      9        1           0.000895866    0.006678592    0.000000000
     10        6          -0.065595982   -0.005979226    0.000000000
     11        1           0.020276289    0.006087433    0.000000000
     12        6          -0.013677022    0.015753472    0.000000000
     13        1           0.036730466   -0.014677780    0.000000000
     14        6          -0.007144148    0.037113030    0.000000000
     15        1           0.013435884   -0.011238698    0.000000000
     16        6          -0.009599612    0.019322079    0.000000000
     17        1          -0.005587764   -0.008946242    0.000000000
     18        1           0.002973068   -0.004914944    0.000000000
 -------------------------------------------------------------------
 Cartesian Forces:  Max     0.073235815 RMS     0.021423762

 GradGradGradGradGradGradGradGradGradGradGradGradGradGradGradGradGradGrad
 Berny optimization.
 Using GEDIIS/GDIIS optimizer.
 Internal  Forces:  Max     0.061130217 RMS     0.017505834
 Search for a local minimum.
 Step number   3 out of a maximum of   79
 All quantities printed in internal units (Hartrees-Bohrs-Radians)
 Mixed Optimization -- RFO/linear search
 Update second derivatives using D2CorX and points    1    2    3
 DE= -5.47D-02 DEPred=-3.35D-02 R= 1.63D+00
 SS=  1.41D+00  RLast= 2.84D-01 DXNew= 5.0454D-01 8.5121D-01
 Trust test= 1.63D+00 RLast= 2.84D-01 DXMaxT set to 5.05D-01
 ITU=  1  0  0
 Use linear search instead of GDIIS.
     Eigenvalues ---    0.00237   0.00237   0.00237   0.01356   0.01357
     Eigenvalues ---    0.01483   0.01574   0.01594   0.01602   0.02681
     Eigenvalues ---    0.02681   0.02681   0.02681   0.02681   0.02681
     Eigenvalues ---    0.15281   0.16000   0.16000   0.16000   0.16000
     Eigenvalues ---    0.16000   0.16000   0.16000   0.16010   0.19278
     Eigenvalues ---    0.21842   0.22000   0.22000   0.22000   0.24097
     Eigenvalues ---    0.27763   0.28516   0.29316   0.36921   0.37198
     Eigenvalues ---    0.37230   0.37230   0.37230   0.37230   0.37230
     Eigenvalues ---    0.37230   0.37230   0.37901   0.53528   0.53920
     Eigenvalues ---    0.53930   0.57815   0.69656
 RFO step:  Lambda=-1.66859212D-02 EMin= 2.36824041D-03
 Quartic linear search produced a step of  0.72031.
 Iteration  1 RMS(Cart)=  0.15232248 RMS(Int)=  0.00503512
 Iteration  2 RMS(Cart)=  0.00856344 RMS(Int)=  0.00000773
 Iteration  3 RMS(Cart)=  0.00001779 RMS(Int)=  0.00000000
 Iteration  4 RMS(Cart)=  0.00000000 RMS(Int)=  0.00000000
 ClnCor:  largest displacement from symmetrization is 2.39D-10 for atom     1.
 Variable       Old X    -DE/DX   Delta X   Delta X   Delta X     New X
                                 (Linear)    (Quad)   (Total)
    R1        2.01795   0.00900   0.00664   0.00785   0.01449   2.03244
    R2        2.03331   0.00529   0.00491   0.00516   0.01007   2.04338
    R3        2.53218   0.00000  -0.00777   0.01676   0.00899   2.54117
    R4        2.04041   0.00825   0.00820   0.00565   0.01385   2.05425
    R5        2.84982  -0.02886  -0.02835  -0.04157  -0.06992   2.77990
    R6        2.04975   0.01017   0.01197  -0.00042   0.01154   2.06129
    R7        2.60274   0.00044   0.01419  -0.03853  -0.02435   2.57840
    R8        2.03382   0.00562   0.00552   0.00389   0.00941   2.04323
    R9        2.89828  -0.02710  -0.01974  -0.07318  -0.09293   2.80535
   R10        2.04530   0.00832   0.01037  -0.00303   0.00734   2.05264
   R11        2.60576  -0.00277   0.01391  -0.04521  -0.03131   2.57446
   R12        2.04258   0.00916   0.00888   0.00747   0.01634   2.05892
   R13        2.86144  -0.02980  -0.02847  -0.04706  -0.07553   2.78591
   R14        2.04033   0.00835   0.00821   0.00603   0.01424   2.05458
   R15        2.54135  -0.00403  -0.00708   0.00744   0.00036   2.54171
   R16        2.01946   0.00884   0.00660   0.00794   0.01454   2.03400
   R17        2.03340   0.00529   0.00499   0.00481   0.00981   2.04320
    A1        2.08365  -0.00490  -0.00541  -0.01854  -0.02395   2.05970
    A2        2.11014   0.00509   0.00727   0.00904   0.01632   2.12646
    A3        2.08939  -0.00019  -0.00186   0.00950   0.00763   2.09703
    A4        2.07575  -0.00202  -0.00084  -0.02018  -0.02102   2.05473
    A5        2.45730  -0.02943  -0.03924  -0.03658  -0.07581   2.38149
    A6        1.75014   0.03145   0.04008   0.05675   0.09683   1.84697
    A7        1.98218  -0.01785  -0.02730   0.01056  -0.01674   1.96545
    A8        2.66308  -0.04328  -0.06525  -0.03401  -0.09926   2.56382
    A9        1.63793   0.06113   0.09255   0.02344   0.11599   1.75392
   A10        2.03093  -0.01136   0.00714  -0.08333  -0.07619   1.95474
   A11        2.26361   0.03028   0.00551   0.11843   0.12393   2.38754
   A12        1.98865  -0.01892  -0.01265  -0.03509  -0.04774   1.94090
   A13        1.71584   0.02914   0.04484   0.04757   0.09240   1.80824
   A14        2.54665  -0.01846  -0.04852   0.03948  -0.00904   2.53761
   A15        2.02070  -0.01068   0.00368  -0.08705  -0.08336   1.93733
   A16        1.62251   0.06053   0.09401   0.01925   0.11325   1.73576
   A17        2.68321  -0.04245  -0.06758  -0.02506  -0.09265   2.59056
   A18        1.97747  -0.01808  -0.02642   0.00582  -0.02060   1.95686
   A19        1.74392   0.02940   0.03871   0.05408   0.09279   1.83671
   A20        2.47774  -0.02737  -0.03983  -0.03071  -0.07055   2.40719
   A21        2.06153  -0.00203   0.00112  -0.02337  -0.02225   2.03928
   A22        2.11885   0.00624   0.00308   0.02521   0.02829   2.14714
   A23        2.08494  -0.00085   0.00025   0.00065   0.00090   2.08584
   A24        2.07939  -0.00540  -0.00333  -0.02586  -0.02919   2.05021
    D1        3.14159   0.00000   0.00000   0.00000   0.00000   3.14159
    D2        0.00000   0.00000   0.00000   0.00000   0.00000   0.00000
    D3        0.00000   0.00000   0.00000   0.00000   0.00000   0.00000
    D4        3.14159   0.00000   0.00000   0.00000   0.00000   3.14159
    D5        3.14159   0.00000   0.00000   0.00000   0.00000   3.14159
    D6        0.00000   0.00000   0.00000   0.00000   0.00000   0.00000
    D7        0.00000   0.00000   0.00000   0.00000   0.00000   0.00000
    D8        3.14159   0.00000   0.00000   0.00000   0.00000   3.14159
    D9        3.14159   0.00000   0.00000   0.00000   0.00000   3.14159
   D10        0.00000   0.00000   0.00000   0.00000   0.00000   0.00000
   D11        0.00000   0.00000   0.00000   0.00000   0.00000   0.00000
   D12        3.14159   0.00000   0.00000   0.00000   0.00000   3.14159
   D13        3.14159   0.00000   0.00000   0.00000   0.00000   3.14159
   D14        0.00000   0.00000   0.00000   0.00000   0.00000   0.00000
   D15        0.00000   0.00000   0.00000   0.00000   0.00000   0.00000
   D16        3.14159   0.00000   0.00000   0.00000   0.00000   3.14159
   D17        3.14159   0.00000   0.00000   0.00000   0.00000   3.14159
   D18        0.00000   0.00000   0.00000   0.00000   0.00000   0.00000
   D19        0.00000   0.00000   0.00000   0.00000   0.00000   0.00000
   D20        3.14159   0.00000   0.00000   0.00000   0.00000   3.14159
   D21        3.14159   0.00000   0.00000   0.00000   0.00000   3.14159
   D22        0.00000   0.00000   0.00000   0.00000   0.00000   0.00000
   D23        0.00000   0.00000   0.00000   0.00000   0.00000   0.00000
   D24        3.14159   0.00000   0.00000   0.00000   0.00000   3.14159
   D25        0.00000   0.00000   0.00000   0.00000   0.00000   0.00000
   D26        3.14159   0.00000   0.00000   0.00000   0.00000   3.14159
   D27        3.14159   0.00000   0.00000   0.00000   0.00000   3.14159
   D28        0.00000   0.00000   0.00000   0.00000   0.00000   0.00000
         Item               Value     Threshold  Converged?
 Maximum Force            0.061130     0.000450     NO 
 RMS     Force            0.017506     0.000300     NO 
 Maximum Displacement     0.570956     0.001800     NO 
 RMS     Displacement     0.156553     0.001200     NO 
 Predicted change in Energy=-3.595785D-02
 GradGradGradGradGradGradGradGradGradGradGradGradGradGradGradGradGradGrad

                          Input orientation:                          
 ---------------------------------------------------------------------
 Center     Atomic      Atomic             Coordinates (Angstroms)
 Number     Number       Type             X           Y           Z
 ---------------------------------------------------------------------
      1          6           0       -3.483272   -3.995536    0.000000
      2          1           0       -2.409118   -3.941324    0.000000
      3          1           0       -3.942351   -4.974558    0.000000
      4          6           0       -4.249311   -2.890327    0.000000
      5          1           0       -5.328273   -3.022790    0.000000
      6          6           0       -4.023641   -1.436680    0.000000
      7          1           0       -4.954325   -0.867782    0.000000
      8          6           0       -3.111930   -0.421569    0.000000
      9          1           0       -3.587153    0.549628    0.000000
     10          6           0       -1.632758   -0.295597    0.000000
     11          1           0       -1.467766    0.778009    0.000000
     12          6           0       -0.449829   -0.971364    0.000000
     13          1           0        0.238636   -0.126911    0.000000
     14          6           0        0.257918   -2.264607    0.000000
     15          1           0        1.315314   -2.011635    0.000000
     16          6           0       -0.053508   -3.573072    0.000000
     17          1           0       -1.067273   -3.934739    0.000000
     18          1           0        0.738562   -4.309045    0.000000
 ---------------------------------------------------------------------
                    Distance matrix (angstroms):
                    1          2          3          4          5
     1  C    0.000000
     2  H    1.075521   0.000000
     3  H    1.081313   1.848885   0.000000
     4  C    1.344731   2.119175   2.106714   0.000000
     5  H    2.085728   3.060256   2.393779   1.087063   0.000000
     6  C    2.615291   2.979920   3.538812   1.471060   2.053731
     7  H    3.456421   3.990581   4.229622   2.141900   2.187212
     8  C    3.593207   3.589236   4.628099   2.718161   3.417386
     9  H    4.546351   4.642888   5.535593   3.503104   3.974125
    10  C    4.136901   3.727474   5.217940   3.684965   4.592865
    11  H    5.181602   4.812302   6.262236   4.603659   5.417526
    12  C    4.283385   3.558015   5.312557   4.256580   5.292217
    13  H    5.368320   4.643312   6.401588   5.270496   6.275077
    14  C    4.122210   3.150311   4.998609   4.550454   5.637408
    15  H    5.192523   4.194650   6.035060   5.633573   6.720095
    16  C    3.455685   2.384221   4.133675   4.250988   5.303391
    17  H    2.416764   1.341861   3.057335   3.349053   4.357496
    18  H    4.233458   3.169086   4.727986   5.185714   6.201688
                    6          7          8          9         10
     6  C    0.000000
     7  H    1.090788   0.000000
     8  C    1.364429   1.895660   0.000000
     9  H    2.033700   1.969317   1.081231   0.000000
    10  C    2.649224   3.370490   1.484526   2.129334   0.000000
    11  H    3.381914   3.855480   2.035255   2.131657   1.086210
    12  C    3.603976   4.505687   2.718281   3.486577   1.362344
    13  H    4.458979   5.245544   3.363497   3.885147   1.878981
    14  C    4.360872   5.396165   3.840919   4.764922   2.729772
    15  H    5.369824   6.373129   4.704125   5.531207   3.411146
    16  C    4.508451   5.597911   4.391573   5.429853   3.638114
    17  H    3.870453   4.951303   4.064847   5.143864   3.682816
    18  H    5.561390   6.652162   5.471631   6.505268   4.661644
                   11         12         13         14         15
    11  H    0.000000
    12  C    2.023982   0.000000
    13  H    1.931499   1.089534   0.000000
    14  C    3.497927   1.474239   2.137782   0.000000
    15  H    3.940513   2.048876   2.170580   1.087235   0.000000
    16  C    4.575154   2.631720   3.458522   1.345016   2.076477
    17  H    4.729735   3.027016   4.025538   2.132012   3.061871
    18  H    5.544907   3.542934   4.211908   2.100178   2.368699
                   16         17         18
    16  C    0.000000
    17  H    1.076348   0.000000
    18  H    1.081217   1.844219   0.000000
 Stoichiometry    C8H10
 Framework group  CS[SG(C8H10)]
 Deg. of freedom    33
 Full point group                 CS      NOp   2
 Largest Abelian subgroup         CS      NOp   2
 Largest concise Abelian subgroup C1      NOp   1
                         Standard orientation:                         
 ---------------------------------------------------------------------
 Center     Atomic      Atomic             Coordinates (Angstroms)
 Number     Number       Type             X           Y           Z
[...]
 ! R10   R(10,11)                1.0914         -DE/DX =    0.0                 !
 ! R11   R(10,12)                1.3746         -DE/DX =    0.0                 !
 ! R12   R(12,13)                1.0913         -DE/DX =    0.0                 !
 ! R13   R(12,14)                1.4623         -DE/DX =    0.0                 !
 ! R14   R(14,15)                1.0909         -DE/DX =    0.0                 !
 ! R15   R(14,16)                1.3439         -DE/DX =    0.0                 !
 ! R16   R(16,17)                1.0751         -DE/DX =    0.0                 !
 ! R17   R(16,18)                1.0854         -DE/DX =    0.0                 !
 ! A1    A(2,1,3)              116.1977         -DE/DX =    0.0                 !
 ! A2    A(2,1,4)              123.2754         -DE/DX =    0.0                 !
 ! A3    A(3,1,4)              120.5269         -DE/DX =    0.0                 !
 ! A4    A(1,4,5)              115.3339         -DE/DX =    0.0                 !
 ! A5    A(1,4,6)              133.8647         -DE/DX =    0.0                 !
 ! A6    A(5,4,6)              110.8014         -DE/DX =    0.0                 !
 ! A7    A(4,6,7)              107.8624         -DE/DX =    0.0                 !
 ! A8    A(4,6,8)              142.8595         -DE/DX =    0.0                 !
 ! A9    A(7,6,8)              109.2781         -DE/DX =    0.0                 !
 ! A10   A(6,8,9)              107.4172         -DE/DX =    0.0                 !
 ! A11   A(6,8,10)             147.7788         -DE/DX =    0.0                 !
 ! A12   A(9,8,10)             104.804          -DE/DX =    0.0                 !
 ! A13   A(8,10,11)            104.7546         -DE/DX =    0.0                 !
 ! A14   A(8,10,12)            147.8821         -DE/DX =    0.0                 !
 ! A15   A(11,10,12)           107.3633         -DE/DX =    0.0                 !
 ! A16   A(10,12,13)           109.1603         -DE/DX =    0.0                 !
 ! A17   A(10,12,14)           143.1376         -DE/DX =    0.0                 !
 ! A18   A(13,12,14)           107.7021         -DE/DX =    0.0                 !
 ! A19   A(12,14,15)           110.6203         -DE/DX =    0.0                 !
 ! A20   A(12,14,16)           134.2238         -DE/DX =    0.0                 !
 ! A21   A(15,14,16)           115.1558         -DE/DX =    0.0                 !
 ! A22   A(14,16,17)           123.5373         -DE/DX =    0.0                 !
 ! A23   A(14,16,18)           120.387          -DE/DX =    0.0                 !
 ! A24   A(17,16,18)           116.0757         -DE/DX =    0.0                 !
 ! D1    D(2,1,4,5)            180.0            -DE/DX =    0.0                 !
 ! D2    D(2,1,4,6)              0.0            -DE/DX =    0.0                 !
 ! D3    D(3,1,4,5)              0.0            -DE/DX =    0.0                 !
 ! D4    D(3,1,4,6)            180.0            -DE/DX =    0.0                 !
 ! D5    D(1,4,6,7)            180.0            -DE/DX =    0.0                 !
 ! D6    D(1,4,6,8)              0.0            -DE/DX =    0.0                 !
 ! D7    D(5,4,6,7)              0.0            -DE/DX =    0.0                 !
 ! D8    D(5,4,6,8)            180.0            -DE/DX =    0.0                 !
 ! D9    D(4,6,8,9)            180.0            -DE/DX =    0.0                 !
 ! D10   D(4,6,8,10)             0.0            -DE/DX =    0.0                 !
 ! D11   D(7,6,8,9)              0.0            -DE/DX =    0.0                 !
 ! D12   D(7,6,8,10)           180.0            -DE/DX =    0.0                 !
 ! D13   D(6,8,10,11)          180.0            -DE/DX =    0.0                 !
 ! D14   D(6,8,10,12)            0.0            -DE/DX =    0.0                 !
 ! D15   D(9,8,10,11)            0.0            -DE/DX =    0.0                 !
 ! D16   D(9,8,10,12)          180.0            -DE/DX =    0.0                 !
 ! D17   D(8,10,12,13)         180.0            -DE/DX =    0.0                 !
 ! D18   D(8,10,12,14)           0.0            -DE/DX =    0.0                 !
 ! D19   D(11,10,12,13)          0.0            -DE/DX =    0.0                 !
 ! D20   D(11,10,12,14)        180.0            -DE/DX =    0.0                 !
 ! D21   D(10,12,14,15)        180.0            -DE/DX =    0.0                 !
 ! D22   D(10,12,14,16)          0.0            -DE/DX =    0.0                 !
 ! D23   D(13,12,14,15)          0.0            -DE/DX =    0.0                 !
 ! D24   D(13,12,14,16)        180.0            -DE/DX =    0.0                 !
 ! D25   D(12,14,16,17)          0.0            -DE/DX =    0.0                 !
 ! D26   D(12,14,16,18)        180.0            -DE/DX =    0.0                 !
 ! D27   D(15,14,16,17)        180.0            -DE/DX =    0.0                 !
 ! D28   D(15,14,16,18)          0.0            -DE/DX =    0.0                 !
 --------------------------------------------------------------------------------
 GradGradGradGradGradGradGradGradGradGradGradGradGradGradGradGradGradGrad

 1\1\GINC-NISER-THINKCENTRE-M93P\Freq\RB3LYP\6-31G\C8H10\STUDENT\02-Mar
 -2021\0\\#N Geom=AllCheck Guess=TCheck SCRF=Check GenChk RB3LYP/6-31G 
 Freq\\Title Card Required\\0,1\C,-3.6406396088,-4.0079657253,0.\H,-2.5
 657099814,-3.9925325116,0.\H,-4.1057652111,-4.988616084,0.\C,-4.393921
 1663,-2.8952894747,0.\H,-5.4720571269,-3.0615011211,0.\C,-4.0890787046
 ,-1.4657015662,0.\H,-5.0350895789,-0.9217274907,0.\C,-3.0490640332,-0.
 5672824681,0.\H,-3.4825871148,0.4342909778,0.\C,-1.5939608007,-0.34719
 40375,0.\H,-1.4769675393,0.7379279003,0.\C,-0.3335757181,-0.8956684249
 ,0.\H,0.4061684178,-0.0933751476,0.\C,0.389177347,-2.1668762216,0.\H,1
 .4666844335,-1.9962094612,0.\C,0.0152455653,-3.4576978452,0.\H,-1.0107
 698008,-3.7788739494,0.\H,0.7618316012,-4.245605559,0.\\Version=EM64L-
 G09RevC.01\State=1-A'\HF=-310.6686507\RMSD=1.681e-09\RMSF=1.239e-06\Ze
 roPoint=0.154254\Thermal=0.1609816\Dipole=-0.0012133,0.0042076,0.\Dipo
 leDeriv=0.0037142,0.0492965,0.,-0.0431285,-0.0578923,0.,0.,0.,-0.30417
 16,-0.0562252,0.0040617,0.,-0.0076694,0.0356591,0.,0.,0.,0.1508919,0.0
 193271,-0.0757572,0.,-0.0698094,-0.0828779,0.,0.,0.,0.1407371,0.343062
 9,0.2094302,0.,0.1010363,0.0162755,0.,0.,0.,-0.0837536,-0.1823666,-0.0
 551747,0.,-0.010733,0.0241526,0.,0.,0.,0.1184826,-0.1029081,-0.2083725
 ,0.,0.06408,0.2327648,0.,0.,0.,-0.1146725,-0.143802,0.077421,0.,0.0631
 569,-0.0303845,0.,0.,0.,0.0997073,0.1761816,-0.0754891,0.,-0.3132483,-
 0.0073487,0.,0.,0.,-0.1042347,-0.0317626,0.0447529,0.,0.0731234,-0.156
 8334,0.,0.,0.,0.097109,0.056612,0.0936006,0.,0.3309998,0.1194005,0.,0.
 ,0.,-0.1035158,-0.0094719,0.0010385,0.,-0.0269702,-0.1793515,0.,0.,0.,
 0.0968992,-0.116822,0.1000869,0.,-0.1701264,0.2435411,0.,0.,0.,-0.1150
 136,-0.094085,-0.0971244,0.,-0.0828107,-0.0808459,0.,0.,0.,0.0994508,0
 .402603,-0.08927,0.,0.0198607,-0.0410925,0.,0.,0.,-0.0831853,-0.182452
 7,-0.0105049,0.,-0.0556833,0.0232943,0.,0.,0.,0.118022,0.0016741,-0.02
 78464,0.,0.0648962,-0.0560809,0.,0.,0.,-0.3048885,-0.0488543,-0.032852
 6,0.,-0.0225793,0.0286687,0.,0.,0.,0.1515271,-0.0344246,0.0927034,0.,0
 .0856051,-0.0310489,0.,0.,0.,0.1406085\Polar=140.2927446,2.9347415,119
 .9544158,0.,0.,25.6060176\PG=CS [SG(C8H10)]\NImag=3\\0.74555218,-0.097
 44744,0.77442295,0.,0.,0.10862547,-0.36258633,-0.00562023,0.,0.3981464
 9,-0.01049867,-0.05882726,0.,0.00693052,0.05091754,0.,0.,-0.03697841,0
 .,0.,0.01564361,-0.11517942,-0.11787236,0.,-0.00844725,-0.02753335,0.,
 0.11486421,-0.11138451,-0.28727659,0.,0.00324070,0.00160267,0.,0.11974
 400,0.30713430,0.,0.,-0.03357645,0.,0.,0.00427795,0.,0.,0.02218874,-0.
 25830559,0.20853231,0.,-0.01403844,0.03156099,0.,0.00877069,-0.0152039
 9,0.,0.68787573,0.18764298,-0.39187749,0.,-0.00487830,0.00614170,0.,0.
 02259229,-0.02164476,0.,-0.13625881,0.74714625,0.,0.,-0.05397292,0.,0.
 ,0.00766510,0.,0.,0.00560549,0.,0.,0.13599923,-0.02166297,-0.00309038,
 0.,0.00032075,0.00310843,0.,0.00166783,0.00029397,0.,-0.31734369,-0.04
 083029,0.,0.34154805,0.03281035,0.00207908,0.,0.00253690,-0.00335316,0
 .,0.00050237,0.00100455,0.,-0.04009998,-0.05988686,0.,0.03958527,0.078
 92093,0.,0.,0.00703890,0.,0.,0.01244182,0.,0.,-0.00835682,0.,0.,-0.044
 61568,0.,0.,0.02821440,0.01806948,0.00986151,0.,0.00081114,-0.00086834
 ,0.,-0.00082744,0.00338705,0.,-0.11471661,0.00157432,0.,-0.00900414,-0
 .03438447,0.,0.66713329,0.00780016,-0.04173829,0.,-0.00013841,0.001086
 99,0.,0.00149970,0.00076971,0.,-0.05837944,-0.23092313,0.,0.00217871,-
 0.01436000,0.,0.09402789,0.66697996,0.,0.,0.00704711,0.,0.,-0.00820298
 ,0.,0.,0.01166109,0.,0.,-0.06781657,0.,0.,0.00406063,0.,0.,0.13863743,
 0.00157515,-0.00051308,0.,0.00018736,-0.00024694,0.,-0.00016121,0.0000
 5174,0.,0.00126845,-0.00791012,0.,0.00238131,-0.00138817,0.,-0.2515800
 7,0.11915856,0.,0.27740844,-0.00330049,-0.00415024,0.,-0.00001699,0.00
 034710,0.,0.00059743,-0.00119003,0.,0.02911014,-0.02666565,0.,0.000061
 35,-0.00064956,0.,0.12102637,-0.11856453,0.,-0.11339141,0.14999285,0.,
 0.,0.00223848,0.,0.,-0.00011030,0.,0.,-0.00014386,0.,0.,0.00650404,0.,
 0.,-0.00111040,0.,0.,-0.03979988,0.,0.,0.02546708,-0.00473089,0.011642
 51,0.,0.00012164,-0.00027818,0.,-0.00057290,0.00027018,0.,0.00767394,-
 0.02875018,0.,0.00248887,0.00050868,0.,-0.28195969,-0.12082618,0.,-0.0
 3072514,-0.02513842,0.,0.65292849,-0.00617262,0.00702652,0.,0.00052069
 ,-0.00013881,0.,0.00057806,-0.00026682,0.,-0.01511978,-0.02627423,0.,-
 0.00078168,-0.00232198,0.,-0.18361768,-0.23839612,0.,0.00849438,0.0001
 6907,0.,0.10573188,0.63408009,0.,0.,-0.00097299,0.,0.,0.00044758,0.,0.
 ,-0.00040654,0.,0.,0.00452455,0.,0.,0.00253195,0.,0.,-0.05710932,0.,0.
 ,0.00540895,0.,0.,0.13705777,-0.00062391,-0.00015266,0.,0.00006546,0.0
 0001249,0.,0.00016304,-0.00018629,0.,-0.00014574,-0.00233170,0.,-0.000
 40454,-0.00019834,0.,-0.00249367,-0.02928969,0.,-0.00041798,-0.0059027
 1,0.,-0.08741262,0.10206340,0.,0.12857469,-0.00027125,0.00015142,0.,0.
 00003614,0.00013466,0.,0.00007529,-0.00017257,0.,-0.00237217,0.0014714
 1,0.,-0.00056144,-0.00099877,0.,0.00490197,-0.03015319,0.,-0.00185039,
 0.00072249,0.,0.10113144,-0.27689768,0.,-0.09109329,0.30231511,0.,0.,-
 0.00041458,0.,0.,0.00060402,0.,0.,-0.00133813,0.,0.,0.01214247,0.,0.,-
 0.00010196,0.,0.,0.00581435,0.,0.,-0.00891261,0.,0.,-0.04067871,0.,0.,
 0.02563176,0.00367128,-0.00630423,0.,-0.00013517,-0.00016179,0.,0.0001
 2274,-0.00000875,0.,-0.00129249,0.01577675,0.,0.00012129,0.00051441,0.
 ,-0.03189144,-0.02859835,0.,0.00116102,-0.00274734,0.,-0.20078767,0.02
 183393,0.,-0.03051695,-0.00630999,0.,0.71101947,0.00066140,0.00105702,
 0.,0.00016058,-0.00046333,0.,-0.00018052,0.00015046,0.,-0.00256212,-0.
 00066601,0.,0.00015710,-0.00045282,0.,-0.00982731,0.00461974,0.,-0.001
 05824,0.00098989,0.,-0.05381486,-0.09722743,0.,0.02775872,-0.00327480,
 0.,-0.08131450,0.57505295,0.,0.,0.00001757,0.,0.,0.00004329,0.,0.,0.00
 068038,0.,0.,-0.00639784,0.,0.,0.00006191,0.,0.,0.00387009,0.,0.,0.011
 92688,0.,0.,-0.06679481,0.,0.,0.00570629,0.,0.,0.13721956,0.00007999,-
 0.00017017,0.,-0.00003462,0.00001140,0.,0.00002714,-0.00003560,0.,-0.0
 0058966,0.00061218,0.,-0.00005204,-0.00026962,0.,-0.00190830,-0.000736
 95,0.,-0.00076957,0.00009046,0.,-0.02206703,-0.03362249,0.,-0.00360755
 ,-0.00301123,0.,-0.04652167,-0.03055857,0.,0.09247665,0.00008926,-0.00
 002618,0.,-0.00004860,0.00007390,0.,-0.00004849,-0.00002930,0.,0.00023
 373,0.00018055,0.,-0.00003803,-0.00003396,0.,-0.00068068,0.00311288,0.
 ,-0.00073049,-0.00038148,0.,0.00046184,-0.01176143,0.,0.00070137,0.003
 86004,0.,-0.02963178,-0.31768663,0.,0.02589419,0.33852591,0.,0.,0.0000
 2589,0.,0.,-0.00010159,0.,0.,0.00002046,0.,0.,-0.00004638,0.,0.,-0.000
 17086,0.,0.,0.00313691,0.,0.,-0.00010634,0.,0.,0.00576018,0.,0.,-0.001
 20770,0.,0.,-0.04082619,0.,0.,0.02573247,-0.00178738,0.00251670,0.,0.0
 0015784,-0.00003894,0.,0.00017149,-0.00004552,0.,0.00133060,-0.0071484
 9,0.,0.00002040,-0.00021362,0.,0.00988995,0.01420830,0.,-0.00010066,-0
 .00011374,0.,-0.03951970,-0.00394534,0.,-0.00185107,-0.00087503,0.,-0.
 36395344,0.14422216,0.,-0.01201422,0.00085787,0.,0.71982731,-0.0000116
 0,-0.00231728,0.,-0.00031305,-0.00006296,0.,0.00028360,-0.00008805,0.,
 0.00081552,0.00480573,0.,0.00002992,-0.00003804,0.,-0.00951293,-0.0051
 2640,0.,-0.00082195,-0.00085018,0.,0.01480925,0.01218555,0.,-0.0007898
 5,0.00306681,0.,0.08127023,-0.15540170,0.,0.03497142,-0.02085504,0.,-0
 .07751732,0.61161756,0.,0.,0.00023688,0.,0.,0.00015680,0.,0.,-0.000156
 38,0.,0.,0.00019604,0.,0.,0.00001365,0.,0.,-0.00150592,0.,0.,-0.000240
 96,0.,0.,0.00386397,0.,0.,0.00312926,0.,0.,-0.05701572,0.,0.,0.0058351
 9,0.,0.,0.13854463,-0.00003891,-0.00003797,0.,-0.00000310,0.00005859,0
 .,-0.00000619,-0.00004009,0.,0.00019269,-0.00005157,0.,-0.00004109,-0.
 00005035,0.,-0.00043384,0.00095285,0.,-0.00030559,-0.00022141,0.,0.000
 05757,0.00075213,0.,-0.00091242,0.00056488,0.,-0.03284710,-0.01867780,
 0.,-0.00255476,0.00082886,0.,-0.17095958,-0.13575926,0.,0.20140666,0.0
 0011641,-0.00003106,0.,0.00001551,0.00002774,0.,-0.00005213,-0.0000028
 2,0.,-0.00001653,0.00011682,0.,-0.00003227,0.00003705,0.,0.00024615,-0
 .00051754,0.,0.00010622,0.00006412,0.,0.00246904,0.00211197,0.,-0.0002
 6407,-0.00023183,0.,0.01490667,0.00207121,0.,0.00490513,0.00287453,0.,
 -0.13758775,-0.19880573,0.,0.12926422,0.22613722,0.,0.,-0.00000732,0.,
 0.,0.00004480,0.,0.,-0.00011998,0.,0.,0.00050347,0.,0.,0.00000935,0.,0
 .,-0.00024167,0.,0.,-0.00154844,0.,0.,0.01194040,0.,0.,-0.00010376,0.,
 0.,0.00544362,0.,0.,-0.00895387,0.,0.,-0.03972491,0.,0.,0.02532852,0.0
 0026519,0.00060854,0.,0.00096972,-0.00039173,0.,-0.00037111,0.00003973
 ,0.,-0.00164827,0.00000552,0.,-0.00004872,0.00030129,0.,-0.00021473,-0
 .00240820,0.,0.00016425,0.00003052,0.,0.00262763,0.00361204,0.,-0.0002
 8456,-0.00037433,0.,-0.00806416,0.02062606,0.,-0.00128680,0.00145906,0
 .,-0.14106021,0.08658799,0.,0.00468046,-0.01908245,0.,0.61187739,-0.00
 014504,0.00126391,0.,0.00008115,0.00008355,0.,0.00004719,-0.00000871,0
 .,0.00042090,-0.00294550,0.,-0.00001726,-0.00011853,0.,0.00559655,0.00
 626380,0.,0.00006788,0.00014271,0.,-0.01472457,-0.00440504,0.,-0.00075
 987,-0.00012467,0.,0.03433317,-0.01068592,0.,0.00149221,0.00267638,0.,
 0.02626192,-0.20286300,0.,0.01787691,-0.03040699,0.,0.09294229,0.82026
 008,0.,0.,0.00007615,0.,0.,-0.00056519,0.,0.,0.00003893,0.,0.,0.000200
 79,0.,0.,-0.00000953,0.,0.,0.00019383,0.,0.,0.00050186,0.,0.,-0.006385
 48,0.,0.,-0.00004481,0.,0.,0.00445051,0.,0.,0.01216588,0.,0.,-0.067895
 55,0.,0.,0.00653664,0.,0.,0.13609789,0.00017337,-0.00005026,0.,-0.0000
 7783,0.00007648,0.,-0.00006596,-0.00002622,0.,0.00002731,0.00006214,0.
 ,-0.00006109,0.00000313,0.,-0.00003687,-0.00002934,0.,-0.00005728,0.00
 000224,0.,0.00026496,0.00007445,0.,-0.00014014,0.00000523,0.,0.0019844
 6,0.00212768,0.,-0.00067264,0.00067216,0.,-0.01892265,-0.00354098,0.,0
 .00171909,0.00070995,0.,-0.31665006,-0.04150410,0.,0.33987921,0.000204
 78,0.00012960,0.,0.00010719,0.00000551,0.,-0.00016002,0.00000111,0.,-0
 .00025854,-0.00019462,0.,-0.00005081,0.00008727,0.,0.00021163,0.000018
 73,0.,0.00002040,0.00005359,0.,-0.00028941,-0.00060008,0.,0.00023748,0
 .00005055,0.,0.00088772,-0.00174853,0.,0.00028085,-0.00072152,0.,0.032
 95119,-0.00474550,0.,0.00226106,-0.00007561,0.,-0.04223232,-0.06011846
 ,0.,0.04404481,0.08073248,0.,0.,-0.00015280,0.,0.,0.00008929,0.,0.,0.0
 0004689,0.,0.,-0.00001140,0.,0.,-0.00000224,0.,0.,0.00001276,0.,0.,0.0
 0000990,0.,0.,0.00006084,0.,0.,-0.00016953,0.,0.,0.00253692,0.,0.,-0.0
 0010412,0.,0.,0.00407819,0.,0.,-0.00109438,0.,0.,-0.04462137,0.,0.,0.0
 2819883,0.00281387,-0.00098442,0.,-0.00768800,-0.00052227,0.,0.0001050
 9,0.00026027,0.,0.00050091,-0.00011742,0.,0.00021362,-0.00017662,0.,-0
 .00108318,0.00043788,0.,-0.00001727,-0.00011126,0.,0.00172445,-0.00047
 574,0.,0.00004216,-0.00006415,0.,-0.00194542,0.00328503,0.,-0.00068855
 ,0.00002249,0.,0.01747403,0.01105256,0.,0.00000167,0.00457971,0.,-0.15
 470937,-0.11051297,0.,-0.01085863,-0.03699870,0.,0.69089914,0.00147991
 ,0.00108084,0.,-0.00138202,-0.00081394,0.,0.00036144,0.00003681,0.,-0.
 00076267,0.00107595,0.,0.00009173,0.00006734,0.,-0.00217295,-0.0029633
 9,0.,0.00004152,-0.00005637,0.,0.00657431,0.00284952,0.,0.00018778,0.0
 0000509,0.,-0.01450490,0.00442025,0.,-0.00009951,0.00019358,0.,0.00916
 535,-0.04099799,0.,0.00179992,-0.00247505,0.,-0.13185382,-0.49466735,0
 .,-0.00110572,-0.00902351,0.,0.07174095,0.82796895,0.,0.,0.00115740,0.
 ,0.,-0.00023397,0.,0.,-0.00015738,0.,0.,0.00008721,0.,0.,-0.00016073,0
 .,0.,0.00024363,0.,0.,-0.00000858,0.,0.,0.00001391,0.,0.,0.00002729,0.
 ,0.,-0.00096015,0.,0.,-0.00041970,0.,0.,0.00697811,0.,0.,0.00224561,0.
 ,0.,-0.05389971,0.,0.,0.00704674,0.,0.,0.10858987,-0.00759130,-0.00069
 204,0.,-0.00775553,-0.00147046,0.,0.00019719,-0.00034682,0.,0.00078647
 ,0.00016601,0.,-0.00002670,-0.00011011,0.,0.00003031,0.00033693,0.,0.0
 0002056,-0.00001777,0.,-0.00018575,-0.00008779,0.,-0.00003333,0.000012
 08,0.,0.00018182,-0.00042237,0.,0.00008507,-0.00005292,0.,0.00051471,-
 0.00005340,0.,0.00012098,-0.00005700,0.,-0.00419450,0.00153421,0.,0.00
 162608,-0.00093541,0.,-0.33750339,-0.08605204,0.,0.36845940,-0.0013881
 8,-0.00084994,0.,-0.00158786,0.00308872,0.,-0.00029280,-0.00002756,0.,
 0.00051380,0.00021291,0.,-0.00009164,-0.00003477,0.,0.00008752,0.00002
 931,0.,-0.00006076,0.00000239,0.,0.00023666,-0.00034324,0.,-0.00003762
 ,0.00007608,0.,0.00035144,-0.00019414,0.,-0.00002978,0.00011065,0.,0.0
 0064787,0.00123622,0.,0.00018873,0.00038748,0.,-0.03466935,-0.00328588
 ,0.,-0.00150601,-0.00465565,0.,-0.08136943,-0.08383024,0.,0.09680177,0
 .08025844,0.,0.,-0.00023754,0.,0.,0.00537710,0.,0.,-0.00057266,0.,0.,-
 0.00061203,0.,0.,0.00010933,0.,0.,0.00015818,0.,0.,0.00003942,0.,0.,0.
 00005312,0.,0.,-0.00010367,0.,0.,0.00043924,0.,0.,0.00061063,0.,0.,-0.
 00817054,0.,0.,-0.00011525,0.,0.,0.00756092,0.,0.,0.01247926,0.,0.,-0.
 03700849,0.,0.,0.01565464,0.00030620,-0.00022635,0.,-0.00001412,0.0002
 5177,0.,-0.00045793,-0.00000985,0.,-0.00034629,-0.00015531,0.,-0.00011
 713,0.00012887,0.,0.00021583,-0.00019442,0.,-0.00003177,0.00004304,0.,
 0.00007385,0.00016218,0.,-0.00000087,0.00005624,0.,-0.00030659,-0.0005
 8243,0.,0.00009856,0.00001017,0.,0.00078259,-0.00150015,0.,-0.00007655
 ,-0.00022681,0.,0.00794783,-0.01299057,0.,0.00186867,-0.00028190,0.,-0
 .19928113,0.14649072,0.,-0.01473208,0.02220564,0.,0.20407095,-0.000185
 46,-0.00011702,0.,0.00035608,0.00014937,0.,-0.00014169,0.00000762,0.,-
 0.00015337,-0.00007308,0.,-0.00001268,0.00005225,0.,0.00014340,-0.0001
 3852,0.,0.00003086,0.00002383,0.,-0.00001398,0.00021014,0.,0.00004485,
 -0.00000014,0.,-0.00029269,-0.00056021,0.,0.00027607,-0.00011287,0.,-0
 .00334560,-0.00075998,0.,0.00029031,-0.00128153,0.,0.02479916,-0.02106
 039,0.,-0.00001562,0.00080464,0.,0.13995408,-0.20287048,0.,-0.00855288
 ,0.00781923,0.,-0.15318084,0.21790716,0.,0.,-0.00015086,0.,0.,-0.00059
 893,0.,0.,0.00030826,0.,0.,0.00004445,0.,0.,0.00004624,0.,0.,-0.000159
 69,0.,0.,-0.00011526,0.,0.,0.00068462,0.,0.,0.00002001,0.,0.,-0.000401
 55,0.,0.,-0.00135088,0.,0.,0.01167723,0.,0.,-0.00014284,0.,0.,0.005598
 23,0.,0.,-0.00840380,0.,0.,-0.03354106,0.,0.,0.00433832,0.,0.,0.022147
 52\\0.00000123,-0.00000078,0.,0.00000304,-0.00000049,0.,0.00000151,-0.
 00000105,0.,0.00000215,-0.00000075,0.,0.,-0.00000191,0.,-0.00000207,-0
 .00000077,0.,-0.00000015,-0.00000204,0.,-0.00000015,-0.00000082,0.,-0.
 00000037,-0.00000028,0.,0.00000084,-0.00000186,0.,-0.00000079,0.000000
 35,0.,-0.00000188,0.00000412,0.,-0.00000264,0.00000198,0.,-0.00000202,
 0.00000049,0.,0.00000049,0.00000152,0.,0.00000058,0.00000102,0.,-0.000
 00092,-0.00000024,0.,0.00000117,0.00000150,0.\\\@


 I SUPPOSE A BABY LLAMA HAS A MMAMA AND A PPOPA.
     -- RICHARD AMOUR
 Job cpu time:  0 days  0 hours  1 minutes 37.9 seconds.
 File lengths (MBytes):  RWF=     27 Int=      0 D2E=      0 Chk=      3 Scr=      1
 Normal termination of Gaussian 09 at Tue Mar  2 16:15:13 2021.
