 Entering Gaussian System, Link 0=g09
 Input=oct06.com
 Output=oct06.log
 Initial command:
 /home/student/g09/l1.exe /home/student/singh/other/Gau-23231.inp -scrdir=/home/student/singh/other/
 Entering Link 1 = /home/student/g09/l1.exe PID=     23233.
  
 Copyright (c) 1988,1990,1992,1993,1995,1998,2003,2009,2011,
            Gaussian, Inc.  All Rights Reserved.
  
 This is part of the Gaussian(R) 09 program.  It is based on
 the Gaussian(R) 03 system (copyright 2003, Gaussian, Inc.),
 the Gaussian(R) 98 system (copyright 1998, Gaussian, Inc.),
 the Gaussian(R) 94 system (copyright 1995, Gaussian, Inc.),
 the Gaussian 92(TM) system (copyright 1992, Gaussian, Inc.),
 the Gaussian 90(TM) system (copyright 1990, Gaussian, Inc.),
 the Gaussian 88(TM) system (copyright 1988, Gaussian, Inc.),
 the Gaussian 86(TM) system (copyright 1986, Carnegie Mellon
 University), and the Gaussian 82(TM) system (copyright 1983,
 Carnegie Mellon University). Gaussian is a federally registered
 trademark of Gaussian, Inc.
  
 This software contains proprietary and confidential information,
 including trade secrets, belonging to Gaussian, Inc.
  
 This software is provided under written license and may be
 used, copied, transmitted, or stored only in accord with that
 written license.
  
 The following legend is applicable only to US Government
 contracts under FAR:
  
                    RESTRICTED RIGHTS LEGEND
  
 Use, reproduction and disclosure by the US Government is
 subject to restrictions as set forth in subparagraphs (a)
 and (c) of the Commercial Computer Software - Restricted
 Rights clause in FAR 52.227-19.
  
 Gaussian, Inc.
 340 Quinnipiac St., Bldg. 40, Wallingford CT 06492
  
  
 ---------------------------------------------------------------
 Warning -- This program may not be used in any manner that
 competes with the business of Gaussian, Inc. or will provide
 assistance to any competitor of Gaussian, Inc.  The licensee
 of this program is prohibited from giving any competitor of
 Gaussian, Inc. access to this program.  By using this program,
 the user acknowledges that Gaussian, Inc. is engaged in the
 business of creating and licensing software in the field of
 computational chemistry and represents and warrants to the
 licensee that it is not a competitor of Gaussian, Inc. and that
 it will not use this program in any manner prohibited above.
 ---------------------------------------------------------------
  

 Cite this work as:
 Gaussian 09, Revision C.01,
 M. J. Frisch, G. W. Trucks, H. B. Schlegel, G. E. Scuseria, 
 M. A. Robb, J. R. Cheeseman, G. Scalmani, V. Barone, B. Mennucci, 
 G. A. Petersson, H. Nakatsuji, M. Caricato, X. Li, H. P. Hratchian, 
 A. F. Izmaylov, J. Bloino, G. Zheng, J. L. Sonnenberg, M. Hada, 
 M. Ehara, K. Toyota, R. Fukuda, J. Hasegawa, M. Ishida, T. Nakajima, 
 Y. Honda, O. Kitao, H. Nakai, T. Vreven, J. A. Montgomery, Jr., 
 J. E. Peralta, F. Ogliaro, M. Bearpark, J. J. Heyd, E. Brothers, 
 K. N. Kudin, V. N. Staroverov, T. Keith, R. Kobayashi, J. Normand, 
 K. Raghavachari, A. Rendell, J. C. Burant, S. S. Iyengar, J. Tomasi, 
 M. Cossi, N. Rega, J. M. Millam, M. Klene, J. E. Knox, J. B. Cross, 
 V. Bakken, C. Adamo, J. Jaramillo, R. Gomperts, R. E. Stratmann, 
 O. Yazyev, A. J. Austin, R. Cammi, C. Pomelli, J. W. Ochterski, 
 R. L. Martin, K. Morokuma, V. G. Zakrzewski, G. A. Voth, 
 P. Salvador, J. J. Dannenberg, S. Dapprich, A. D. Daniels, 
 O. Farkas, J. B. Foresman, J. V. Ortiz, J. Cioslowski, 
 and D. J. Fox, Gaussian, Inc., Wallingford CT, 2010.
 
 ******************************************
 Gaussian 09:  EM64L-G09RevC.01 23-Sep-2011
                 2-Mar-2021 
 ******************************************
 %chk=oct06.chk
 -----------------------------------------
 # opt freq b3lyp/6-31g* geom=connectivity
 -----------------------------------------
 1/14=-1,18=20,19=15,26=3,38=1,57=2/1,3;
 2/9=110,12=2,17=6,18=5,40=1/2;
 3/5=1,6=6,7=1,11=2,16=1,25=1,30=1,71=1,74=-5/1,2,3;
 4//1;
 5/5=2,38=5/2;
 6/7=2,8=2,9=2,10=2,28=1/1;
 7//1,2,3,16;
 1/14=-1,18=20,19=15/3(2);
 2/9=110/2;
 99//99;
 2/9=110/2;
 3/5=1,6=6,7=1,11=2,16=1,25=1,30=1,71=1,74=-5/1,2,3;
 4/5=5,16=3/1;
 5/5=2,38=5/2;
 7//1,2,3,16;
 1/14=-1,18=20,19=15/3(-5);
 2/9=110/2;
 6/7=2,8=2,9=2,10=2,19=2,28=1/1;
 99/9=1/99;
 -------------------
 Title Card Required
 -------------------
 Charge =  0 Multiplicity = 1
 Symbolic Z-Matrix:
 C                     2.5937    3.12399  -0.8576 
 H                     3.11547   2.19047  -0.89227 
 H                     2.90316   3.8825   -0.16927 
 C                     1.54227   3.34894  -1.68249 
 H                     1.0205    4.28246  -1.64783 
 C                     1.09688   2.25725  -2.67317 
 H                     1.82482   3.00991  -2.8934 
 C                     0.17491   1.30397  -2.39424 
 H                     0.44082   0.45494  -1.79983 
 C                    -1.26043   1.44316  -2.93464 
 H                    -1.98837   0.6905   -2.71442 
 C                    -0.54731   3.57939  -4.03737 
 H                    -0.81914   4.42617  -4.63231 
 C                     0.72632   3.44667  -3.59372 
 H                     0.73407   4.1354   -2.77488 
 H                     0.71857   2.75794  -4.41255 
 C                    -1.60472   2.51565  -3.68817 
 H                    -2.62189   2.57629  -4.01463 
 

 GradGradGradGradGradGradGradGradGradGradGradGradGradGradGradGradGradGrad
 Berny optimization.
 Initialization pass.
                           ----------------------------
                           !    Initial Parameters    !
                           ! (Angstroms and Degrees)  !
 --------------------------                            --------------------------
 ! Name  Definition              Value          Derivative Info.                !
 --------------------------------------------------------------------------------
 ! R1    R(1,2)                  1.07           estimate D2E/DX2                !
 ! R2    R(1,3)                  1.07           estimate D2E/DX2                !
 ! R3    R(1,4)                  1.3552         estimate D2E/DX2                !
 ! R4    R(4,5)                  1.07           estimate D2E/DX2                !
 ! R5    R(4,6)                  1.54           estimate D2E/DX2                !
 ! R6    R(4,7)                  1.2888         estimate D2E/DX2                !
 ! R7    R(6,7)                  1.07           estimate D2E/DX2                !
 ! R8    R(6,8)                  1.3552         estimate D2E/DX2                !
 ! R9    R(6,14)                 1.549          estimate D2E/DX2                !
 ! R10   R(7,14)                 1.374          estimate D2E/DX2                !
 ! R11   R(8,9)                  1.07           estimate D2E/DX2                !
 ! R12   R(8,10)                 1.54           estimate D2E/DX2                !
 ! R13   R(10,11)                1.07           estimate D2E/DX2                !
 ! R14   R(10,17)                1.3552         estimate D2E/DX2                !
 ! R15   R(12,13)                1.07           estimate D2E/DX2                !
 ! R16   R(12,14)                1.3552         estimate D2E/DX2                !
 ! R17   R(12,17)                1.54           estimate D2E/DX2                !
 ! R18   R(14,15)                1.07           estimate D2E/DX2                !
 ! R19   R(14,16)                1.07           estimate D2E/DX2                !
 ! R20   R(17,18)                1.07           estimate D2E/DX2                !
 ! A1    A(2,1,3)              119.8865         estimate D2E/DX2                !
 ! A2    A(2,1,4)              120.2269         estimate D2E/DX2                !
 ! A3    A(3,1,4)              119.8865         estimate D2E/DX2                !
 ! A4    A(1,4,5)              120.2269         estimate D2E/DX2                !
 ! A5    A(1,4,6)              119.8865         estimate D2E/DX2                !
 ! A6    A(1,4,7)              110.9853         estimate D2E/DX2                !
 ! A7    A(5,4,6)              119.8865         estimate D2E/DX2                !
 ! A8    A(5,4,7)              111.5215         estimate D2E/DX2                !
 ! A9    A(4,6,8)              124.2636         estimate D2E/DX2                !
 ! A10   A(4,6,14)              84.6727         estimate D2E/DX2                !
 ! A11   A(8,6,14)             119.9798         estimate D2E/DX2                !
 ! A12   A(4,7,14)             102.7077         estimate D2E/DX2                !
 ! A13   A(6,8,9)              120.2269         estimate D2E/DX2                !
 ! A14   A(6,8,10)             119.8865         estimate D2E/DX2                !
 ! A15   A(9,8,10)             119.8865         estimate D2E/DX2                !
 ! A16   A(8,10,11)            119.8865         estimate D2E/DX2                !
 ! A17   A(8,10,17)            120.2269         estimate D2E/DX2                !
 ! A18   A(11,10,17)           119.8865         estimate D2E/DX2                !
 ! A19   A(13,12,14)           119.8865         estimate D2E/DX2                !
 ! A20   A(13,12,17)           119.8865         estimate D2E/DX2                !
 ! A21   A(14,12,17)           120.2269         estimate D2E/DX2                !
 ! A22   A(6,14,12)            119.6411         estimate D2E/DX2                !
 ! A23   A(6,14,15)             92.1625         estimate D2E/DX2                !
 ! A24   A(6,14,16)             87.8375         estimate D2E/DX2                !
 ! A25   A(7,14,12)            161.6855         estimate D2E/DX2                !
 ! A26   A(7,14,15)             78.9753         estimate D2E/DX2                !
 ! A27   A(7,14,16)            101.0247         estimate D2E/DX2                !
 ! A28   A(12,14,15)           101.2037         estimate D2E/DX2                !
 ! A29   A(12,14,16)            78.7963         estimate D2E/DX2                !
 ! A30   A(10,17,12)           119.8865         estimate D2E/DX2                !
 ! A31   A(10,17,18)           117.1297         estimate D2E/DX2                !
 ! A32   A(12,17,18)           122.9838         estimate D2E/DX2                !
 ! A33   L(7,6,8,2,-1)         180.0            estimate D2E/DX2                !
 ! A34   L(15,14,16,6,-1)      180.0            estimate D2E/DX2                !
 ! A35   L(7,6,8,2,-2)         180.0            estimate D2E/DX2                !
 ! A36   L(15,14,16,6,-2)      180.0            estimate D2E/DX2                !
 ! D1    D(2,1,4,5)            180.0            estimate D2E/DX2                !
 ! D2    D(2,1,4,6)              0.0            estimate D2E/DX2                !
 ! D3    D(2,1,4,7)            -47.2952         estimate D2E/DX2                !
 ! D4    D(3,1,4,5)              0.0            estimate D2E/DX2                !
 ! D5    D(3,1,4,6)            180.0            estimate D2E/DX2                !
 ! D6    D(3,1,4,7)            132.7048         estimate D2E/DX2                !
 ! D7    D(1,4,6,8)             90.42           estimate D2E/DX2                !
 ! D8    D(1,4,6,14)          -146.6425         estimate D2E/DX2                !
 ! D9    D(5,4,6,8)            -89.58           estimate D2E/DX2                !
 ! D10   D(5,4,6,14)            33.3575         estimate D2E/DX2                !
 ! D11   D(1,4,7,14)          -173.2588         estimate D2E/DX2                !
 ! D12   D(5,4,7,14)           -36.3006         estimate D2E/DX2                !
 ! D13   D(4,6,8,9)            -77.86           estimate D2E/DX2                !
 ! D14   D(4,6,8,10)           102.14           estimate D2E/DX2                !
 ! D15   D(14,6,8,9)           176.8746         estimate D2E/DX2                !
 ! D16   D(14,6,8,10)           -3.1254         estimate D2E/DX2                !
 ! D17   D(4,6,14,12)         -122.0242         estimate D2E/DX2                !
 ! D18   D(4,6,14,15)          -17.8307         estimate D2E/DX2                !
 ! D19   D(4,6,14,16)          162.1693         estimate D2E/DX2                !
 ! D20   D(8,6,14,12)            4.7735         estimate D2E/DX2                !
 ! D21   D(8,6,14,15)          108.9671         estimate D2E/DX2                !
 ! D22   D(8,6,14,16)          -71.0329         estimate D2E/DX2                !
 ! D23   D(4,7,14,12)          -64.2734         estimate D2E/DX2                !
 ! D24   D(4,7,14,15)           28.0964         estimate D2E/DX2                !
 ! D25   D(4,7,14,16)         -151.9036         estimate D2E/DX2                !
 ! D26   D(6,8,10,11)          180.0            estimate D2E/DX2                !
 ! D27   D(6,8,10,17)            0.0            estimate D2E/DX2                !
 ! D28   D(9,8,10,11)            0.0            estimate D2E/DX2                !
 ! D29   D(9,8,10,17)          180.0            estimate D2E/DX2                !
 ! D30   D(8,10,17,12)           1.67           estimate D2E/DX2                !
 ! D31   D(8,10,17,18)        -178.3227         estimate D2E/DX2                !
 ! D32   D(11,10,17,12)       -178.33           estimate D2E/DX2                !
 ! D33   D(11,10,17,18)          1.6773         estimate D2E/DX2                !
 ! D34   D(13,12,14,6)         176.8909         estimate D2E/DX2                !
 ! D35   D(13,12,14,7)         166.6005         estimate D2E/DX2                !
 ! D36   D(13,12,14,15)         77.86           estimate D2E/DX2                !
 ! D37   D(13,12,14,16)       -102.14           estimate D2E/DX2                !
 ! D38   D(17,12,14,6)          -3.1091         estimate D2E/DX2                !
 ! D39   D(17,12,14,7)         -13.3995         estimate D2E/DX2                !
 ! D40   D(17,12,14,15)       -102.14           estimate D2E/DX2                !
 ! D41   D(17,12,14,16)         77.86           estimate D2E/DX2                !
 ! D42   D(13,12,17,10)        180.0            estimate D2E/DX2                !
 ! D43   D(13,12,17,18)         -0.0078         estimate D2E/DX2                !
 ! D44   D(14,12,17,10)          0.0            estimate D2E/DX2                !
 ! D45   D(14,12,17,18)        179.9922         estimate D2E/DX2                !
 --------------------------------------------------------------------------------
 Trust Radius=3.00D-01 FncErr=1.00D-07 GrdErr=1.00D-06
 Number of steps in this run=    108 maximum allowed number of steps=    108.
 GradGradGradGradGradGradGradGradGradGradGradGradGradGradGradGradGradGrad

                          Input orientation:                          
 ---------------------------------------------------------------------
 Center     Atomic      Atomic             Coordinates (Angstroms)
 Number     Number       Type             X           Y           Z
 ---------------------------------------------------------------------
      1          6           0        2.593701    3.123989   -0.857600
      2          1           0        3.115467    2.190469   -0.892267
      3          1           0        2.903158    3.882502   -0.169273
      4          6           0        1.542267    3.348938   -1.682495
      5          1           0        1.020501    4.282457   -1.647827
      6          6           0        1.096880    2.257246   -2.673171
      7          1           0        1.824825    3.009905   -2.893399
      8          6           0        0.174908    1.303971   -2.394242
      9          1           0        0.440820    0.454935   -1.799826
     10          6           0       -1.260429    1.443159   -2.934645
     11          1           0       -1.988373    0.690499   -2.714416
     12          6           0       -0.547306    3.579387   -4.037366
     13          1           0       -0.819139    4.426171   -4.632314
     14          6           0        0.726323    3.446672   -3.593718
     15          1           0        0.734075    4.135400   -2.774881
     16          1           0        0.718570    2.757944   -4.412554
     17          6           0       -1.604717    2.515646   -3.688172
     18          1           0       -2.621894    2.576293   -4.014626
 ---------------------------------------------------------------------
                    Distance matrix (angstroms):
                    1          2          3          4          5
     1  C    0.000000
     2  H    1.070000   0.000000
     3  H    1.070000   1.852234   0.000000
     4  C    1.355200   2.107479   2.103938   0.000000
     5  H    2.107479   3.055515   2.427032   1.070000   0.000000
     6  C    2.507591   2.692725   3.489068   1.540000   2.271265
     7  H    2.179143   2.518286   3.056974   1.288826   1.953913
     8  C    3.394745   3.418873   4.363789   2.560887   3.184893
     9  H    3.556196   3.315038   4.524381   3.098742   3.874153
    10  C    4.689736   4.886537   5.561756   3.613167   3.862662
    11  H    5.510448   5.623106   6.371319   4.538456   4.805528
    12  C    4.492686   5.023609   5.192275   3.156714   2.943165
    13  H    5.252773   5.870898   5.836935   3.929136   3.508859
    14  C    3.328298   3.818886   4.081100   2.080406   2.138122
    15  H    2.856069   3.605277   3.399716   1.570033   1.172141
    16  H    4.035815   4.296459   4.903314   2.912211   3.171595
    17  C    5.099895   5.495722   5.879785   3.823692   3.765155
    18  H    6.121210   6.543340   6.857049   4.834879   4.666881
                    6          7          8          9         10
     6  C    0.000000
     7  H    1.070000   0.000000
     8  C    1.355200   2.425200   0.000000
     9  H    2.107479   3.104713   1.070000   0.000000
    10  C    2.507591   3.460518   1.540000   2.271265   0.000000
    11  H    3.460518   4.466784   2.271265   2.606327   1.070000
    12  C    2.512456   2.694434   2.898098   3.968019   2.507591
    13  H    3.494798   3.467013   3.968027   5.037976   3.460518
    14  C    1.549017   1.374015   2.516738   3.500007   2.897521
    15  H    1.915578   1.571789   2.911107   3.818711   3.354361
    16  H    1.849128   1.896079   2.546212   3.493901   2.798091
    17  C    2.897521   3.554956   2.511867   3.463611   1.355200
    18  H    3.966179   4.606352   3.473694   4.334249   2.074594
                   11         12         13         14         15
    11  H    0.000000
    12  C    3.488918   0.000000
    13  H    4.358978   1.070000   0.000000
    14  C    3.967270   1.355200   2.103938   0.000000
    15  H    4.391210   1.882806   2.438664   1.070000   0.000000
    16  H    3.805988   1.554985   2.279436   1.070000   2.140000
    17  C    2.103938   1.540000   2.271265   2.511867   2.987917
    18  H    2.376576   2.304481   2.655845   3.485008   3.902603
                   16         17         18
    16  H    0.000000
    17  C    2.445629   0.000000
    18  H    3.368983   1.070000   0.000000
 Stoichiometry    C8H10
 Framework group  C1[X(C8H10)]
 Deg. of freedom    48
 Full point group                 C1      NOp   1
 Largest Abelian subgroup         C1      NOp   1
 Largest concise Abelian subgroup C1      NOp   1
                         Standard orientation:                         
 ---------------------------------------------------------------------
 Center     Atomic      Atomic             Coordinates (Angstroms)
 Number     Number       Type             X           Y           Z
 ---------------------------------------------------------------------
      1          6           0        2.910147    0.184095   -0.256597
      2          1           0        3.156395    0.924431    0.475636
      3          1           0        3.671385   -0.200764   -0.902585
      4          6           0        1.637433   -0.267804   -0.368638
      5          1           0        1.391185   -1.008140   -1.100870
      6          6           0        0.541820    0.286105    0.561102
      7          1           0        1.149766   -0.565002    0.786753
      8          6           0       -0.228170    1.364068    0.275306
      9          1           0        0.166033    2.352500    0.387135
     10          6           0       -1.675484    1.165741   -0.212084
     11          1           0       -2.283430    2.016848   -0.437735
     12          6           0       -1.319795   -1.306962    0.005256
     13          1           0       -1.719536   -2.292946   -0.108509
     14          6           0       -0.056703   -1.139501    0.466909
     15          1           0        0.516155   -1.366074   -0.407962
     16          1           0       -0.629561   -0.912929    1.341779
     17          6           0       -2.181773   -0.083049   -0.356173
     18          1           0       -3.183244   -0.164076   -0.724128
 ---------------------------------------------------------------------
 Rotational constants (GHZ):      4.4119320      1.6134231      1.2868637
 Standard basis: 6-31G(d) (6D, 7F)
 There are   140 symmetry adapted basis functions of A   symmetry.
 Integral buffers will be    131072 words long.
 Raffenetti 2 integral format.
 Two-electron integral symmetry is turned on.
   140 basis functions,   264 primitive gaussians,   140 cartesian basis functions
    29 alpha electrons       29 beta electrons
       nuclear repulsion energy       349.2934258665 Hartrees.
 NAtoms=   18 NActive=   18 NUniq=   18 SFac= 1.00D+00 NAtFMM=   60 NAOKFM=F Big=F
 One-electron integrals computed using PRISM.
 NBasis=   140 RedAO= T  NBF=   140
 NBsUse=   140 1.00D-06 NBFU=   140
 Harris functional with IExCor=  402 diagonalized for initial guess.
 ExpMin= 1.61D-01 ExpMax= 3.05D+03 ExpMxC= 4.57D+02 IAcc=1 IRadAn=         1 AccDes= 0.00D+00
 HarFok:  IExCor=  402 AccDes= 0.00D+00 IRadAn=         1 IDoV= 1
 ScaDFX=  1.000000  1.000000  1.000000  1.000000
 FoFCou: FMM=F IPFlag=           0 FMFlag=      100000 FMFlg1=           0
         NFxFlg=           0 DoJE=T BraDBF=F KetDBF=T FulRan=T
         Omega=  0.000000  0.000000  1.000000  0.000000  0.000000 ICntrl=     500 IOpCl=  0
         NMat0=    1 NMatS0=    1 NMatT0=    0 NMatD0=    1 NMtDS0=    0 NMtDT0=    0
         I1Cent=           4 NGrid=           0.
 Petite list used in FoFCou.
 Initial guess orbital symmetries:
       Occupied  (A) (A) (A) (A) (A) (A) (A) (A) (A) (A) (A) (A)
                 (A) (A) (A) (A) (A) (A) (A) (A) (A) (A) (A) (A)
                 (A) (A) (A) (A) (A)
       Virtual   (A) (A) (A) (A) (A) (A) (A) (A) (A) (A) (A) (A)
                 (A) (A) (A) (A) (A) (A) (A) (A) (A) (A) (A) (A)
                 (A) (A) (A) (A) (A) (A) (A) (A) (A) (A) (A) (A)
                 (A) (A) (A) (A) (A) (A) (A) (A) (A) (A) (A) (A)
                 (A) (A) (A) (A) (A) (A) (A) (A) (A) (A) (A) (A)
                 (A) (A) (A) (A) (A) (A) (A) (A) (A) (A) (A) (A)
                 (A) (A) (A) (A) (A) (A) (A) (A) (A) (A) (A) (A)
                 (A) (A) (A) (A) (A) (A) (A) (A) (A) (A) (A) (A)
                 (A) (A) (A) (A) (A) (A) (A) (A) (A) (A) (A) (A)
                 (A) (A) (A)
 The electronic state of the initial guess is 1-A.
 Requested convergence on RMS density matrix=1.00D-08 within 128 cycles.
 Requested convergence on MAX density matrix=1.00D-06.
 Requested convergence on             energy=1.00D-06.
 No special actions if energy rises.
 Integral accuracy reduced to 1.0D-05 until final iterations.
 Initial convergence to 1.0D-05 achieved.  Increase integral accuracy.
 SCF Done:  E(RB3LYP) =  -310.313951917     A.U. after   18 cycles
             Convg  =    0.7220D-08             -V/T =  2.0052

 **********************************************************************

            Population analysis using the SCF density.

 **********************************************************************

 Orbital symmetries:
       Occupied  (A) (A) (A) (A) (A) (A) (A) (A) (A) (A) (A) (A)
                 (A) (A) (A) (A) (A) (A) (A) (A) (A) (A) (A) (A)
                 (A) (A) (A) (A) (A)
       Virtual   (A) (A) (A) (A) (A) (A) (A) (A) (A) (A) (A) (A)
                 (A) (A) (A) (A) (A) (A) (A) (A) (A) (A) (A) (A)
                 (A) (A) (A) (A) (A) (A) (A) (A) (A) (A) (A) (A)
                 (A) (A) (A) (A) (A) (A) (A) (A) (A) (A) (A) (A)
                 (A) (A) (A) (A) (A) (A) (A) (A) (A) (A) (A) (A)
                 (A) (A) (A) (A) (A) (A) (A) (A) (A) (A) (A) (A)
                 (A) (A) (A) (A) (A) (A) (A) (A) (A) (A) (A) (A)
                 (A) (A) (A) (A) (A) (A) (A) (A) (A) (A) (A) (A)
                 (A) (A) (A) (A) (A) (A) (A) (A) (A) (A) (A) (A)
                 (A) (A) (A)
 The electronic state is 1-A.
 Alpha  occ. eigenvalues --  -10.20634 -10.20228 -10.19653 -10.18708 -10.18111
 Alpha  occ. eigenvalues --  -10.18076 -10.17805 -10.16686  -0.93584  -0.80969
 Alpha  occ. eigenvalues --   -0.76201  -0.72622  -0.67750  -0.61669  -0.58626
 Alpha  occ. eigenvalues --   -0.52742  -0.50735  -0.47429  -0.46030  -0.44631
 Alpha  occ. eigenvalues --   -0.39965  -0.39177  -0.38035  -0.34935  -0.30094
 Alpha  occ. eigenvalues --   -0.28119  -0.26451  -0.23544  -0.13023
 Alpha virt. eigenvalues --   -0.05759  -0.02149   0.02337   0.08635   0.11513
 Alpha virt. eigenvalues --    0.12638   0.13260   0.14795   0.15677   0.17501
 Alpha virt. eigenvalues --    0.18809   0.19163   0.22075   0.24221   0.27752
 Alpha virt. eigenvalues --    0.30069   0.31424   0.34197   0.34840   0.41175
 Alpha virt. eigenvalues --    0.46532   0.50043   0.52747   0.53847   0.54849
 Alpha virt. eigenvalues --    0.57697   0.58562   0.60406   0.60893   0.61774
 Alpha virt. eigenvalues --    0.62363   0.63303   0.65798   0.66180   0.67851
 Alpha virt. eigenvalues --    0.71045   0.74777   0.76330   0.79726   0.83848
 Alpha virt. eigenvalues --    0.84418   0.85238   0.87369   0.88074   0.89004
 Alpha virt. eigenvalues --    0.90882   0.91038   0.93750   0.94844   0.96772
 Alpha virt. eigenvalues --    0.97621   1.00085   1.03725   1.06593   1.10684
 Alpha virt. eigenvalues --    1.13435   1.16079   1.21839   1.25808   1.29652
 Alpha virt. eigenvalues --    1.30429   1.40035   1.46293   1.49880   1.51637
 Alpha virt. eigenvalues --    1.53774   1.58045   1.60746   1.62486   1.68089
 Alpha virt. eigenvalues --    1.71275   1.77701   1.87795   1.88931   1.92651
 Alpha virt. eigenvalues --    1.95012   1.95411   1.99023   2.02462   2.04991
 Alpha virt. eigenvalues --    2.08107   2.10805   2.14981   2.17626   2.22062
 Alpha virt. eigenvalues --    2.26304   2.30441   2.33471   2.38466   2.40154
 Alpha virt. eigenvalues --    2.48798   2.51852   2.53558   2.57613   2.61028
 Alpha virt. eigenvalues --    2.66391   2.67862   2.72653   2.79184   2.82750
 Alpha virt. eigenvalues --    2.88766   3.00033   3.21690   4.07370   4.13429
 Alpha virt. eigenvalues --    4.15903   4.26232   4.34699   4.37720   4.51011
 Alpha virt. eigenvalues --    4.70943
          Condensed to atoms (all electrons):
              1          2          3          4          5          6
     1  C    5.105118   0.367048   0.356532   0.640869  -0.045564  -0.077810
     2  H    0.367048   0.548504  -0.037089  -0.042579   0.006098   0.000979
     3  H    0.356532  -0.037089   0.557467  -0.022566  -0.003411   0.004478
     4  C    0.640869  -0.042579  -0.022566   5.566376   0.321912   0.199672
     5  H   -0.045564   0.006098  -0.003411   0.321912   0.639904  -0.030640
     6  C   -0.077810   0.000979   0.004478   0.199672  -0.030640   5.389905
     7  H   -0.041875   0.003570   0.000833  -0.075638   0.022976   0.284755
     8  C    0.001589   0.001572  -0.000066  -0.092836   0.007136   0.453791
     9  H    0.001530   0.000433  -0.000050  -0.001407  -0.000064  -0.058429
    10  C    0.000132   0.000007   0.000001  -0.004909   0.000914  -0.027511
    11  H   -0.000002  -0.000001   0.000000  -0.000012  -0.000020   0.005363
    12  C   -0.000588  -0.000005   0.000029  -0.003525   0.004533  -0.023488
    13  H    0.000022   0.000000  -0.000001   0.000796  -0.000569   0.005377
    14  C    0.021218  -0.000561  -0.000633  -0.225607  -0.083098   0.209464
    15  H   -0.000465   0.000251  -0.000332  -0.023265  -0.009350  -0.128767
    16  H    0.000173  -0.000173   0.000020   0.028176  -0.003571  -0.108385
    17  C   -0.000035   0.000003   0.000002   0.001990  -0.000137  -0.031314
    18  H    0.000000   0.000000   0.000000  -0.000039   0.000038   0.000178
              7          8          9         10         11         12
     1  C   -0.041875   0.001589   0.001530   0.000132  -0.000002  -0.000588
     2  H    0.003570   0.001572   0.000433   0.000007  -0.000001  -0.000005
     3  H    0.000833  -0.000066  -0.000050   0.000001   0.000000   0.000029
     4  C   -0.075638  -0.092836  -0.001407  -0.004909  -0.000012  -0.003525
     5  H    0.022976   0.007136  -0.000064   0.000914  -0.000020   0.004533
     6  C    0.284755   0.453791  -0.058429  -0.027511   0.005363  -0.023488
     7  H    0.614560   0.013518  -0.002349   0.002387  -0.000064   0.022453
     8  C    0.013518   5.008927   0.363739   0.559055  -0.038325  -0.026361
     9  H   -0.002349   0.363739   0.598357  -0.040435  -0.003604  -0.000108
    10  C    0.002387   0.559055  -0.040435   4.927350   0.364137  -0.033174
    11  H   -0.000064  -0.038325  -0.003604   0.364137   0.594393   0.005237
    12  C    0.022453  -0.026361  -0.000108  -0.033174   0.005237   5.299369
    13  H   -0.001685  -0.000024   0.000014   0.003778  -0.000096   0.363610
    14  C   -0.121682  -0.052516   0.007966  -0.039628   0.000343   0.278180
    15  H   -0.009381   0.006620  -0.000676   0.001783   0.000064  -0.030169
    16  H   -0.041200  -0.000977  -0.000665   0.016116   0.000244  -0.128139
    17  C    0.001708  -0.036203   0.004404   0.475814  -0.051879   0.550299
    18  H    0.000036   0.005693  -0.000117  -0.053849  -0.007874  -0.037827
             13         14         15         16         17         18
     1  C    0.000022   0.021218  -0.000465   0.000173  -0.000035   0.000000
     2  H    0.000000  -0.000561   0.000251  -0.000173   0.000003   0.000000
     3  H   -0.000001  -0.000633  -0.000332   0.000020   0.000002   0.000000
     4  C    0.000796  -0.225607  -0.023265   0.028176   0.001990  -0.000039
     5  H   -0.000569  -0.083098  -0.009350  -0.003571  -0.000137   0.000038
     6  C    0.005377   0.209464  -0.128767  -0.108385  -0.031314   0.000178
     7  H   -0.001685  -0.121682  -0.009381  -0.041200   0.001708   0.000036
     8  C   -0.000024  -0.052516   0.006620  -0.000977  -0.036203   0.005693
     9  H    0.000014   0.007966  -0.000676  -0.000665   0.004404  -0.000117
    10  C    0.003778  -0.039628   0.001783   0.016116   0.475814  -0.053849
    11  H   -0.000096   0.000343   0.000064   0.000244  -0.051879  -0.007874
    12  C    0.363610   0.278180  -0.030169  -0.128139   0.550299  -0.037827
    13  H    0.571873  -0.048973  -0.007841  -0.000370  -0.031653  -0.003406
    14  C   -0.048973   5.819342   0.363611   0.350956  -0.073218   0.006179
    15  H   -0.007841   0.363611   0.595032   0.017971   0.010502  -0.000436
    16  H   -0.000370   0.350956   0.017971   0.650717  -0.006839  -0.001530
    17  C   -0.031653  -0.073218   0.010502  -0.006839   4.956022   0.361537
    18  H   -0.003406   0.006179  -0.000436  -0.001530   0.361537   0.611276
 Mulliken atomic charges:
              1
     1  C   -0.327891
     2  H    0.151942
     3  H    0.144785
     4  C   -0.267410
     5  H    0.172912
     6  C   -0.067621
     7  H    0.327078
     8  C   -0.174332
     9  H    0.131463
    10  C   -0.151968
    11  H    0.132097
    12  C   -0.240329
    13  H    0.149149
    14  C   -0.411341
    15  H    0.214851
    16  H    0.227475
    17  C   -0.131002
    18  H    0.120141
 Sum of Mulliken atomic charges =   0.00000
 Mulliken charges with hydrogens summed into heavy atoms:
              1
     1  C   -0.031164
     4  C   -0.094497
     6  C    0.259458
     8  C   -0.042870
    10  C   -0.019872
    12  C   -0.091180
    14  C    0.030985
    17  C   -0.010860
 Sum of Mulliken charges with hydrogens summed into heavy atoms =   0.00000
 Electronic spatial extent (au):  <R**2>=            966.6032
 Charge=              0.0000 electrons
 Dipole moment (field-independent basis, Debye):
    X=              0.5101    Y=             -0.7540    Z=             -0.5403  Tot=              1.0586
 Quadrupole moment (field-independent basis, Debye-Ang):
   XX=            -46.7311   YY=            -47.0682   ZZ=            -51.1799
   XY=              0.0237   XZ=             -0.2555   YZ=              1.7108
 Traceless Quadrupole moment (field-independent basis, Debye-Ang):
   XX=              1.5953   YY=              1.2582   ZZ=             -2.8535
   XY=              0.0237   XZ=             -0.2555   YZ=              1.7108
 Octapole moment (field-independent basis, Debye-Ang**2):
  XXX=              1.9379  YYY=              2.8384  ZZZ=             -1.0999  XYY=             -3.4488
  XXY=              3.0462  XXZ=             -5.7373  XZZ=              1.9974  YZZ=             -2.2123
  YYZ=             -3.1028  XYZ=              5.3562
 Hexadecapole moment (field-independent basis, Debye-Ang**3):
 XXXX=           -853.4660 YYYY=           -321.2847 ZZZZ=           -113.4710 XXXY=             -0.9215
 XXXZ=              5.0457 YYYX=              6.3249 YYYZ=              7.5572 ZZZX=             -4.8390
 ZZZY=              1.8241 XXYY=           -196.6286 XXZZ=           -169.4613 YYZZ=            -78.9106
 XXYZ=              4.5892 YYXZ=              2.3579 ZZXY=             -1.6793
 N-N= 3.492934258665D+02 E-N=-1.416926827887D+03  KE= 3.087125577047D+02
 Calling FoFJK, ICntrl=      2127 FMM=F ISym2X=0 I1Cent= 0 IOpClX= 0 NMat=1 NMatS=1 NMatT=0.
 ***** Axes restored to original set *****
 -------------------------------------------------------------------
 Center     Atomic                   Forces (Hartrees/Bohr)
 Number     Number              X              Y              Z
 -------------------------------------------------------------------
      1        6          -0.018047868    0.020683647   -0.003902155
      2        1           0.007816633   -0.009632929   -0.000667129
      3        1           0.008235474    0.005849278    0.009188528
      4        6           0.038851080   -0.056773177    0.155862509
      5        1          -0.000372394    0.014798075    0.033358775
      6        6           0.001656766    0.108580617    0.043261287
      7        1           0.114752857   -0.054420851   -0.038252176
      8        6          -0.137705560   -0.063879428   -0.029395437
      9        1          -0.003340105   -0.010298591    0.008625529
     10        6           0.128284928   -0.048199638    0.063841130
     11        1          -0.002852405   -0.010678775    0.005752121
     12        6          -0.223684589   -0.065228342    0.026423446
     13        1          -0.005936383    0.010378914   -0.006333271
     14        6          -0.047103575   -0.039098454   -0.074367678
     15        1           0.024262071    0.055841736   -0.064506459
     16        1           0.070251070    0.013838009   -0.063862431
     17        6           0.053010806    0.119790395   -0.053897737
     18        1          -0.008078807    0.008449514   -0.011128852
 -------------------------------------------------------------------
 Cartesian Forces:  Max     0.223684589 RMS     0.062610187

 GradGradGradGradGradGradGradGradGradGradGradGradGradGradGradGradGradGrad
 Berny optimization.
 Internal  Forces:  Max     0.144615442 RMS     0.037903597
 Search for a local minimum.
 Step number   1 out of a maximum of  108
 All quantities printed in internal units (Hartrees-Bohrs-Radians)
 Mixed Optimization -- RFO/linear search
 Second derivative matrix not updated -- first step.
 ITU=  0
     Eigenvalues ---    0.00884   0.01084   0.01438   0.01515   0.01582
     Eigenvalues ---    0.01719   0.02089   0.02140   0.02252   0.02396
     Eigenvalues ---    0.02681   0.02681   0.03005   0.04444   0.07058
     Eigenvalues ---    0.07645   0.10273   0.12154   0.14121   0.14679
     Eigenvalues ---    0.15184   0.16000   0.16000   0.16000   0.16000
     Eigenvalues ---    0.16000   0.16000   0.17392   0.20806   0.21997
     Eigenvalues ---    0.22245   0.24301   0.27786   0.28287   0.29599
     Eigenvalues ---    0.37230   0.37230   0.37230   0.37230   0.37230
     Eigenvalues ---    0.37230   0.37230   0.37230   0.37230   0.50609
     Eigenvalues ---    0.51184   0.53928   0.53930
 RFO step:  Lambda=-2.85919391D-01 EMin= 8.84331702D-03
 Linear search not attempted -- first point.
 Maximum step size (   0.300) exceeded in Quadratic search.
    -- Step size scaled by   0.446
 Iteration  1 RMS(Cart)=  0.06666303 RMS(Int)=  0.00147249
 Iteration  2 RMS(Cart)=  0.00140941 RMS(Int)=  0.00034641
 Iteration  3 RMS(Cart)=  0.00000242 RMS(Int)=  0.00034640
 Iteration  4 RMS(Cart)=  0.00000000 RMS(Int)=  0.00034640
 Variable       Old X    -DE/DX   Delta X   Delta X   Delta X     New X
                                 (Linear)    (Quad)   (Total)
    R1        2.02201   0.01223   0.00000   0.00829   0.00829   2.03029
    R2        2.02201   0.01244   0.00000   0.00843   0.00843   2.03043
    R3        2.56096  -0.00155   0.00000  -0.00083  -0.00084   2.56012
    R4        2.02201   0.01418   0.00000   0.00960   0.00960   2.03161
    R5        2.91018   0.04362   0.00000   0.03002   0.03023   2.94041
    R6        2.43553   0.11859   0.00000   0.11281   0.11255   2.54808
    R7        2.02201  -0.00719   0.00000  -0.00084  -0.00141   2.02060
    R8        2.56096   0.08942   0.00000   0.04832   0.04832   2.60928
    R9        2.92722   0.07704   0.00000   0.06535   0.06643   2.99365
   R10        2.59651   0.13409   0.00000   0.13205   0.13133   2.72784
   R11        2.02201   0.01213   0.00000   0.00822   0.00822   2.03023
   R12        2.91018  -0.09521   0.00000  -0.07641  -0.07643   2.83375
   R13        2.02201   0.01064   0.00000   0.00721   0.00721   2.02921
   R14        2.56096   0.07620   0.00000   0.03972   0.03970   2.60066
   R15        2.02201   0.01324   0.00000   0.00897   0.00897   2.03098
   R16        2.56096   0.14462   0.00000   0.07953   0.07954   2.64050
   R17        2.91018  -0.10909   0.00000  -0.08524  -0.08524   2.82494
   R18        2.02201  -0.01324   0.00000  -0.00897  -0.00897   2.01304
   R19        2.02201   0.03945   0.00000   0.02672   0.02672   2.04873
   R20        2.02201   0.01155   0.00000   0.00783   0.00783   2.02983
    A1        2.09241  -0.00460   0.00000  -0.00460  -0.00460   2.08782
    A2        2.09836  -0.00203   0.00000  -0.00203  -0.00203   2.09633
    A3        2.09241   0.00662   0.00000   0.00662   0.00662   2.09904
    A4        2.09836  -0.02501   0.00000  -0.02394  -0.02400   2.07435
    A5        2.09241   0.01990   0.00000   0.01859   0.01926   2.11167
    A6        1.93706   0.01245   0.00000   0.00359   0.00390   1.94096
    A7        2.09241   0.00511   0.00000   0.00534   0.00475   2.09716
    A8        1.94642   0.01854   0.00000   0.02355   0.02373   1.97015
    A9        2.16881  -0.02704   0.00000  -0.02389  -0.02395   2.14486
   A10        1.47782   0.09488   0.00000   0.09956   0.09986   1.57768
   A11        2.09404  -0.03782   0.00000  -0.03033  -0.03043   2.06362
   A12        1.79259   0.05640   0.00000   0.05584   0.05473   1.84732
   A13        2.09836  -0.00144   0.00000   0.00018   0.00018   2.09854
   A14        2.09241   0.01499   0.00000   0.01176   0.01174   2.10415
   A15        2.09241  -0.01355   0.00000  -0.01194  -0.01193   2.08049
   A16        2.09241  -0.02171   0.00000  -0.01786  -0.01785   2.07457
   A17        2.09836   0.03028   0.00000   0.02258   0.02254   2.12090
   A18        2.09241  -0.00857   0.00000  -0.00472  -0.00471   2.08770
   A19        2.09241   0.00085   0.00000  -0.00064  -0.00065   2.09176
   A20        2.09241  -0.00400   0.00000  -0.00549  -0.00549   2.08692
   A21        2.09836   0.00315   0.00000   0.00613   0.00614   2.10450
   A22        2.08813  -0.01947   0.00000  -0.01666  -0.01694   2.07119
   A23        1.60854   0.01823   0.00000   0.02472   0.02442   1.63296
   A24        1.53305   0.01662   0.00000   0.02385   0.02437   1.55742
   A25        2.82194  -0.04851   0.00000  -0.04044  -0.04038   2.78157
   A26        1.37838   0.02506   0.00000   0.02611   0.02683   1.40521
   A27        1.76321  -0.02277   0.00000  -0.02509  -0.02433   1.73888
   A28        1.76634  -0.01463   0.00000  -0.01248  -0.01163   1.75471
   A29        1.37525   0.02877   0.00000   0.03506   0.03562   1.41088
   A30        2.09241   0.00718   0.00000   0.00448   0.00445   2.09686
   A31        2.04430   0.00737   0.00000   0.00872   0.00872   2.05302
   A32        2.14647  -0.01455   0.00000  -0.01320  -0.01320   2.13327
   A33        3.14159   0.00367   0.00000  -0.00360  -0.00413   3.13747
   A34        3.14159   0.03485   0.00000   0.04857   0.04879   3.19039
   A35        3.14159   0.01922   0.00000   0.03037   0.03102   3.17261
   A36        3.14159   0.03726   0.00000   0.05527   0.05537   3.19696
    D1        3.14159  -0.00389   0.00000  -0.00381  -0.00386   3.13774
    D2        0.00000  -0.00605   0.00000  -0.00376  -0.00407  -0.00407
    D3       -0.82546   0.01297   0.00000   0.01189   0.01224  -0.81322
    D4        0.00000  -0.00546   0.00000  -0.00605  -0.00609  -0.00609
    D5        3.14159  -0.00762   0.00000  -0.00599  -0.00631   3.13529
    D6        2.31614   0.01140   0.00000   0.00965   0.01001   2.32614
    D7        1.57813   0.00564   0.00000   0.00027   0.00050   1.57863
    D8       -2.55939   0.02055   0.00000   0.02914   0.02958  -2.52981
    D9       -1.56347   0.00348   0.00000   0.00032   0.00028  -1.56318
   D10        0.58220   0.01839   0.00000   0.02920   0.02936   0.61156
   D11       -3.02394  -0.01320   0.00000  -0.01643  -0.01739  -3.04133
   D12       -0.63356  -0.01910   0.00000  -0.02459  -0.02510  -0.65866
   D13       -1.35891   0.05495   0.00000   0.06496   0.06481  -1.29410
   D14        1.78268   0.05795   0.00000   0.06807   0.06776   1.85044
   D15        3.08704  -0.02798   0.00000  -0.03367  -0.03339   3.05366
   D16       -0.05455  -0.02498   0.00000  -0.03055  -0.03044  -0.08499
   D17       -2.12972   0.00828   0.00000   0.00496   0.00437  -2.12535
   D18       -0.31120  -0.00144   0.00000   0.00211   0.00198  -0.30923
   D19        2.83039  -0.03871   0.00000  -0.05316  -0.05339   2.77700
   D20        0.08331   0.02574   0.00000   0.03160   0.03102   0.11433
   D21        1.90183   0.01601   0.00000   0.02875   0.02862   1.93045
   D22       -1.23976  -0.02125   0.00000  -0.02651  -0.02675  -1.26651
   D23       -1.12178   0.02429   0.00000   0.03148   0.03204  -1.08974
   D24        0.49037   0.05670   0.00000   0.07330   0.07313   0.56350
   D25       -2.65122   0.00479   0.00000  -0.00162  -0.00163  -2.65285
   D26        3.14159   0.00564   0.00000   0.00718   0.00744  -3.13415
   D27        0.00000   0.01037   0.00000   0.01283   0.01309   0.01309
   D28        0.00000   0.00863   0.00000   0.01029   0.01036   0.01036
   D29        3.14159   0.01336   0.00000   0.01593   0.01600  -3.12559
   D30        0.02915   0.00485   0.00000   0.00588   0.00613   0.03527
   D31       -3.11232  -0.00040   0.00000  -0.00156  -0.00156  -3.11388
   D32       -3.11245   0.00958   0.00000   0.01153   0.01181  -3.10063
   D33        0.02927   0.00434   0.00000   0.00409   0.00413   0.03340
   D34        3.08733  -0.01410   0.00000  -0.01542  -0.01529   3.07204
   D35        2.90773   0.00810   0.00000   0.00783   0.00795   2.91568
   D36        1.35891  -0.02119   0.00000  -0.03232  -0.03229   1.32662
   D37       -1.78268   0.02877   0.00000   0.03904   0.03851  -1.74417
   D38       -0.05426  -0.01334   0.00000  -0.01520  -0.01519  -0.06946
   D39       -0.23387   0.00886   0.00000   0.00805   0.00805  -0.22581
   D40       -1.78268  -0.02043   0.00000  -0.03210  -0.03219  -1.81487
   D41        1.35891   0.02953   0.00000   0.03926   0.03861   1.39752
   D42        3.14159  -0.00075   0.00000  -0.00250  -0.00271   3.13888
   D43       -0.00014   0.00482   0.00000   0.00539   0.00535   0.00521
   D44        0.00000  -0.00151   0.00000  -0.00273  -0.00281  -0.00281
   D45        3.14146   0.00406   0.00000   0.00517   0.00525  -3.13648
         Item               Value     Threshold  Converged?
 Maximum Force            0.144615     0.000450     NO 
 RMS     Force            0.037904     0.000300     NO 
 Maximum Displacement     0.267913     0.001800     NO 
 RMS     Displacement     0.066461     0.001200     NO 
 Predicted change in Energy=-1.164537D-01
 GradGradGradGradGradGradGradGradGradGradGradGradGradGradGradGradGradGrad

                          Input orientation:                          
 ---------------------------------------------------------------------
 Center     Atomic      Atomic             Coordinates (Angstroms)
 Number     Number       Type             X           Y           Z
 ---------------------------------------------------------------------
      1          6           0        2.637179    3.086817   -0.806595
      2          1           0        3.161491    2.152653   -0.888679
      3          1           0        2.961315    3.816371   -0.087464
      4          6           0        1.575186    3.342828   -1.607843
      5          1           0        1.063165    4.282654   -1.506054
      6          6           0        1.096575    2.301886   -2.660694
      7          1           0        1.845550    3.029376   -2.891118
      8          6           0        0.151264    1.334583   -2.382773
      9          1           0        0.408700    0.484283   -1.778666
     10          6           0       -1.243109    1.454202   -2.921364
     11          1           0       -1.958394    0.689729   -2.682571
     12          6           0       -0.619451    3.556750   -4.098255
     13          1           0       -0.922561    4.378764   -4.720748
     14          6           0        0.702579    3.471392   -3.653982
     15          1           0        0.698561    4.210890   -2.887241
     16          1           0        0.751619    2.768485   -4.477924
     17          6           0       -1.619279    2.513479   -3.715330
     18          1           0       -2.640752    2.550443   -4.045491
 ---------------------------------------------------------------------
                    Distance matrix (angstroms):
                    1          2          3          4          5
     1  C    0.000000
     2  H    1.074385   0.000000
     3  H    1.074460   1.857410   0.000000
     4  C    1.354758   2.109521   2.111196   0.000000
     5  H    2.096852   3.053036   2.415117   1.075081   0.000000
     6  C    2.535205   2.725103   3.520289   1.555997   2.292979
     7  H    2.230518   2.551491   3.118456   1.348386   2.025150
     8  C    3.425556   3.458760   4.395919   2.580914   3.208009
     9  H    3.561492   3.339670   4.525353   3.092111   3.863970
    10  C    4.711084   4.901035   5.593569   3.637998   3.914351
    11  H    5.512223   5.618845   6.380753   4.547544   4.839744
    12  C    4.654192   5.154453   5.382911   3.326311   3.174530
    13  H    5.446234   6.026591   6.071910   4.123358   3.779762
    14  C    3.463840   3.928386   4.235676   2.228151   2.324169
    15  H    3.057919   3.781086   3.621388   1.777319   1.430302
    16  H    4.139484   4.366854   5.025630   3.040641   3.349893
    17  C    5.187185   5.565601   5.986717   3.915856   3.899536
    18  H    6.215682   6.617381   6.975078   4.933978   4.813346
                    6          7          8          9         10
     6  C    0.000000
     7  H    1.069253   0.000000
     8  C    1.380771   2.449764   0.000000
     9  H    2.134203   3.127233   1.074350   0.000000
    10  C    2.502126   3.467262   1.499555   2.230465   0.000000
    11  H    3.454325   4.470731   2.226291   2.542122   1.073813
    12  C    2.566322   2.794912   2.911169   3.984675   2.488921
    13  H    3.554456   3.582016   3.985758   5.059158   3.448709
    14  C    1.584171   1.443511   2.546738   3.539207   2.896806
    15  H    1.963170   1.646686   2.971054   3.898789   3.372028
    16  H    1.907625   1.944917   2.608862   3.552627   2.851167
    17  C    2.921111   3.598683   2.510045   3.461358   1.376210
    18  H    3.993376   4.657131   3.469625   4.325120   2.102097
                   11         12         13         14         15
    11  H    0.000000
    12  C    3.466517   0.000000
    13  H    4.340057   1.074747   0.000000
    14  C    3.970146   1.397293   2.145319   0.000000
    15  H    4.415866   1.905678   2.453154   1.065253   0.000000
    16  H    3.858586   1.626451   2.335561   1.084142   2.147934
    17  C    2.123124   1.494892   2.230598   2.512446   2.989869
    18  H    2.405290   2.258561   2.598252   3.489884   3.905079
                   16         17         18
    16  H    0.000000
    17  C    2.503544   0.000000
    18  H    3.426765   1.074141   0.000000
 Stoichiometry    C8H10
 Framework group  C1[X(C8H10)]
 Deg. of freedom    48
 Full point group                 C1      NOp   1
 Largest Abelian subgroup         C1      NOp   1
 Largest concise Abelian subgroup C1      NOp   1
                         Standard orientation:                         
 ---------------------------------------------------------------------
 Center     Atomic      Atomic             Coordinates (Angstroms)
 Number     Number       Type             X           Y           Z
 ---------------------------------------------------------------------
      1          6           0        2.975721    0.159534   -0.223456
      2          1           0        3.213306    0.850831    0.563922
      3          1           0        3.754809   -0.192152   -0.874457
      4          6           0        1.700975   -0.267271   -0.391474
      5          1           0        1.485327   -0.956278   -1.188070
      6          6           0        0.561185    0.224615    0.546636
      7          1           0        1.150940   -0.635309    0.783325
      8          6           0       -0.197906    1.346692    0.279709
      9          1           0        0.221654    2.327172    0.409537
     10          6           0       -1.615733    1.213931   -0.190192
     11          1           0       -2.179035    2.104575   -0.396394
     12          6           0       -1.450879   -1.263762   -0.021114
     13          1           0       -1.922205   -2.220907   -0.150750
     14          6           0       -0.139683   -1.193227    0.456606
     15          1           0        0.401057   -1.479087   -0.415546
     16          1           0       -0.670449   -0.973038    1.375936
     17          6           0       -2.206763   -0.017960   -0.354756
     18          1           0       -3.216906   -0.041120   -0.719251
 ---------------------------------------------------------------------
 Rotational constants (GHZ):      4.3907567      1.5516654      1.2452799
 Standard basis: 6-31G(d) (6D, 7F)
 There are   140 symmetry adapted basis functions of A   symmetry.
 Integral buffers will be    131072 words long.
 Raffenetti 2 integral format.
 Two-electron integral symmetry is turned on.
   140 basis functions,   264 primitive gaussians,   140 cartesian basis functions
    29 alpha electrons       29 beta electrons
       nuclear repulsion energy       344.9450929094 Hartrees.
 NAtoms=   18 NActive=   18 NUniq=   18 SFac= 1.00D+00 NAtFMM=   60 NAOKFM=F Big=F
 One-electron integrals computed using PRISM.
 NBasis=   140 RedAO= T  NBF=   140
 NBsUse=   140 1.00D-06 NBFU=   140
 Initial guess read from the read-write file.
 B after Tr=     0.000000    0.000000    0.000000
         Rot=    1.000000    0.000000    0.000000    0.000000 Ang=   0.00 deg.
 Initial guess orbital symmetries:
       Occupied  (A) (A) (A) (A) (A) (A) (A) (A) (A) (A) (A) (A)
                 (A) (A) (A) (A) (A) (A) (A) (A) (A) (A) (A) (A)
                 (A) (A) (A) (A) (A)
       Virtual   (A) (A) (A) (A) (A) (A) (A) (A) (A) (A) (A) (A)
                 (A) (A) (A) (A) (A) (A) (A) (A) (A) (A) (A) (A)
                 (A) (A) (A) (A) (A) (A) (A) (A) (A) (A) (A) (A)
                 (A) (A) (A) (A) (A) (A) (A) (A) (A) (A) (A) (A)
                 (A) (A) (A) (A) (A) (A) (A) (A) (A) (A) (A) (A)
                 (A) (A) (A) (A) (A) (A) (A) (A) (A) (A) (A) (A)
                 (A) (A) (A) (A) (A) (A) (A) (A) (A) (A) (A) (A)
                 (A) (A) (A) (A) (A) (A) (A) (A) (A) (A) (A) (A)
                 (A) (A) (A) (A) (A) (A) (A) (A) (A) (A) (A) (A)
                 (A) (A) (A)
 Harris functional with IExCor=  402 diagonalized for initial guess.
 ExpMin= 1.61D-01 ExpMax= 3.05D+03 ExpMxC= 4.57D+02 IAcc=1 IRadAn=         1 AccDes= 0.00D+00
 HarFok:  IExCor=  402 AccDes= 0.00D+00 IRadAn=         1 IDoV= 1
 ScaDFX=  1.000000  1.000000  1.000000  1.000000
 FoFCou: FMM=F IPFlag=           0 FMFlag=      100000 FMFlg1=           0
         NFxFlg=           0 DoJE=T BraDBF=F KetDBF=T FulRan=T
         Omega=  0.000000  0.000000  1.000000  0.000000  0.000000 ICntrl=     500 IOpCl=  0
         NMat0=    1 NMatS0=    1 NMatT0=    0 NMatD0=    1 NMtDS0=    0 NMtDT0=    0
         I1Cent=           4 NGrid=           0.
 Petite list used in FoFCou.
 Requested convergence on RMS density matrix=1.00D-08 within 128 cycles.
 Requested convergence on MAX density matrix=1.00D-06.
 Requested convergence on             energy=1.00D-06.
 No special actions if energy rises.
 Integral accuracy reduced to 1.0D-05 until final iterations.
 Initial convergence to 1.0D-05 achieved.  Increase integral accuracy.
 SCF Done:  E(RB3LYP) =  -310.422471057     A.U. after   16 cycles
             Convg  =    0.3086D-08             -V/T =  2.0069
 Calling FoFJK, ICntrl=      2127 FMM=F ISym2X=0 I1Cent= 0 IOpClX= 0 NMat=1 NMatS=1 NMatT=0.
 ***** Axes restored to original set *****
 -------------------------------------------------------------------
 Center     Atomic                   Forces (Hartrees/Bohr)
 Number     Number              X              Y              Z
 -------------------------------------------------------------------
      1        6          -0.018701230    0.013520676   -0.008483395
      2        1           0.006425611   -0.007235013    0.000591568
      3        1           0.006036723    0.003507605    0.006587642
      4        6           0.020650654   -0.042887644    0.110046129
      5        1          -0.003281462    0.009453770    0.012272265
      6        6          -0.010485023    0.102923016    0.038485893
      7        1           0.099624783   -0.052230089   -0.034927187
      8        6          -0.108949053   -0.047899539   -0.030883369
      9        1          -0.002301939   -0.006867231    0.007680450
     10        6           0.109827622   -0.036937205    0.053806752
     11        1          -0.002293586   -0.007796226    0.004792848
     12        6          -0.178816285   -0.063129111    0.034354774
     13        1          -0.003866639    0.008570511   -0.003846461
     14        6          -0.060601823   -0.054281806   -0.042872582
     15        1           0.033144609    0.050377989   -0.043994687
     16        1           0.069545221    0.024809739   -0.046341298
     17        6           0.050161869    0.100434745   -0.048854313
     18        1          -0.006120055    0.005665810   -0.008415029
 -------------------------------------------------------------------
 Cartesian Forces:  Max     0.178816285 RMS     0.052195846

 GradGradGradGradGradGradGradGradGradGradGradGradGradGradGradGradGradGrad
 Berny optimization.
 Using GEDIIS/GDIIS optimizer.
 Internal  Forces:  Max     0.106989231 RMS     0.027737216
 Search for a local minimum.
 Step number   2 out of a maximum of  108
 All quantities printed in internal units (Hartrees-Bohrs-Radians)
 Mixed Optimization -- RFO/linear search
 Update second derivatives using D2CorX and points    1    2
 DE= -1.09D-01 DEPred=-1.16D-01 R= 9.32D-01
 SS=  1.41D+00  RLast= 3.49D-01 DXNew= 5.0454D-01 1.0470D+00
 Trust test= 9.32D-01 RLast= 3.49D-01 DXMaxT set to 5.05D-01
 ITU=  1  0
 Use linear search instead of GDIIS.
 Linear search step of   0.600 exceeds DXMaxT=   0.505 but not scaled.
 Quartic linear search produced a step of  2.00000.
 Iteration  1 RMS(Cart)=  0.12709801 RMS(Int)=  0.00730029
 Iteration  2 RMS(Cart)=  0.00862946 RMS(Int)=  0.00214809
 Iteration  3 RMS(Cart)=  0.00004940 RMS(Int)=  0.00214771
 Iteration  4 RMS(Cart)=  0.00000009 RMS(Int)=  0.00214771
 Variable       Old X    -DE/DX   Delta X   Delta X   Delta X     New X
                                 (Linear)    (Quad)   (Total)
    R1        2.03029   0.00940   0.01657   0.00000   0.01654   2.04683
    R2        2.03043   0.00861   0.01685   0.00000   0.01685   2.04729
    R3        2.56012  -0.00751  -0.00167   0.00000  -0.00168   2.55845
    R4        2.03161   0.01099   0.01920   0.00000   0.01920   2.05081
    R5        2.94041   0.01747   0.06046   0.00000   0.06249   3.00289
    R6        2.54808   0.08228   0.22510   0.00000   0.22328   2.77136
    R7        2.02060  -0.00025  -0.00282   0.00000  -0.00655   2.01404
    R8        2.60928   0.06064   0.09664   0.00000   0.09665   2.70593
    R9        2.99365   0.04299   0.13286   0.00000   0.13922   3.13286
   R10        2.72784   0.09528   0.26265   0.00000   0.25827   2.98611
   R11        2.03023   0.00920   0.01644   0.00000   0.01644   2.04667
   R12        2.83375  -0.08688  -0.15286   0.00000  -0.15286   2.68089
   R13        2.02921   0.00814   0.01441   0.00000   0.01441   2.04362
   R14        2.60066   0.05731   0.07941   0.00000   0.07938   2.68004
   R15        2.03098   0.00987   0.01794   0.00000   0.01794   2.04892
   R16        2.64050   0.10699   0.15909   0.00000   0.15906   2.79956
   R17        2.82494  -0.09713  -0.17048   0.00000  -0.17054   2.65440
   R18        2.01304   0.00318  -0.01794   0.00000  -0.01794   1.99510
   R19        2.04873   0.02228   0.05345   0.00000   0.05345   2.10218
   R20        2.02983   0.00860   0.01565   0.00000   0.01565   2.04549
    A1        2.08782  -0.00444  -0.00919   0.00000  -0.00921   2.07861
    A2        2.09633   0.00036  -0.00405   0.00000  -0.00404   2.09229
    A3        2.09904   0.00408   0.01324   0.00000   0.01323   2.11226
    A4        2.07435  -0.01034  -0.04801   0.00000  -0.04846   2.02589
    A5        2.11167   0.01682   0.03852   0.00000   0.04238   2.15405
    A6        1.94096   0.00261   0.00780   0.00000   0.00982   1.95077
    A7        2.09716  -0.00648   0.00949   0.00000   0.00608   2.10324
    A8        1.97015   0.01085   0.04746   0.00000   0.04862   2.01877
    A9        2.14486  -0.01895  -0.04789   0.00000  -0.04855   2.09631
   A10        1.57768   0.05907   0.19973   0.00000   0.20076   1.77844
   A11        2.06362  -0.02198  -0.06085   0.00000  -0.06171   2.00191
   A12        1.84732   0.01557   0.10947   0.00000   0.10183   1.94915
   A13        2.09854  -0.00096   0.00037   0.00000   0.00044   2.09898
   A14        2.10415   0.00970   0.02348   0.00000   0.02333   2.12748
   A15        2.08049  -0.00874  -0.02386   0.00000  -0.02379   2.05670
   A16        2.07457  -0.01488  -0.03569   0.00000  -0.03564   2.03892
   A17        2.12090   0.02021   0.04509   0.00000   0.04495   2.16585
   A18        2.08770  -0.00533  -0.00943   0.00000  -0.00941   2.07829
   A19        2.09176  -0.00141  -0.00130   0.00000  -0.00119   2.09058
   A20        2.08692  -0.00256  -0.01099   0.00000  -0.01087   2.07605
   A21        2.10450   0.00397   0.01229   0.00000   0.01206   2.11656
   A22        2.07119  -0.02051  -0.03389   0.00000  -0.03496   2.03623
   A23        1.63296   0.01082   0.04884   0.00000   0.04714   1.68010
   A24        1.55742   0.01655   0.04874   0.00000   0.05157   1.60899
   A25        2.78157  -0.03554  -0.08076   0.00000  -0.07992   2.70165
   A26        1.40521   0.01781   0.05367   0.00000   0.05763   1.46285
   A27        1.73888  -0.02077  -0.04867   0.00000  -0.04379   1.69509
   A28        1.75471  -0.00647  -0.02326   0.00000  -0.01812   1.73659
   A29        1.41088   0.02865   0.07125   0.00000   0.07425   1.48513
   A30        2.09686   0.00651   0.00890   0.00000   0.00858   2.10544
   A31        2.05302   0.00468   0.01745   0.00000   0.01752   2.07054
   A32        2.13327  -0.01121  -0.02640   0.00000  -0.02633   2.10694
   A33        3.13747  -0.00501  -0.00825   0.00000  -0.01189   3.12558
   A34        3.19039   0.02737   0.09759   0.00000   0.09870   3.28909
   A35        3.17261   0.02485   0.06204   0.00000   0.06641   3.23902
   A36        3.19696   0.03919   0.11073   0.00000   0.11123   3.30819
    D1        3.13774  -0.00194  -0.00771   0.00000  -0.00805   3.12969
    D2       -0.00407  -0.00404  -0.00815   0.00000  -0.01013  -0.01421
    D3       -0.81322   0.00695   0.02448   0.00000   0.02671  -0.78650
    D4       -0.00609  -0.00261  -0.01218   0.00000  -0.01248  -0.01857
    D5        3.13529  -0.00471  -0.01261   0.00000  -0.01457   3.12072
    D6        2.32614   0.00628   0.02002   0.00000   0.02228   2.34842
    D7        1.57863   0.00027   0.00100   0.00000   0.00230   1.58093
    D8       -2.52981   0.01033   0.05916   0.00000   0.06181  -2.46800
    D9       -1.56318  -0.00187   0.00057   0.00000   0.00012  -1.56306
   D10        0.61156   0.00820   0.05872   0.00000   0.05963   0.67119
   D11       -3.04133  -0.00808  -0.03478   0.00000  -0.04060  -3.08193
   D12       -0.65866  -0.00979  -0.05020   0.00000  -0.05290  -0.71156
   D13       -1.29410   0.03259   0.12963   0.00000   0.12810  -1.16599
   D14        1.85044   0.03259   0.13552   0.00000   0.13295   1.98339
   D15        3.05366  -0.01758  -0.06677   0.00000  -0.06475   2.98891
   D16       -0.08499  -0.01759  -0.06088   0.00000  -0.05991  -0.14489
   D17       -2.12535   0.01346   0.00875   0.00000   0.00477  -2.12058
   D18       -0.30923   0.00812   0.00395   0.00000   0.00274  -0.30649
   D19        2.77700  -0.03106  -0.10678   0.00000  -0.10849   2.66851
   D20        0.11433   0.02167   0.06204   0.00000   0.05831   0.17265
   D21        1.93045   0.01633   0.05724   0.00000   0.05628   1.98674
   D22       -1.26651  -0.02285  -0.05349   0.00000  -0.05494  -1.32145
   D23       -1.08974   0.01463   0.06408   0.00000   0.06765  -1.02210
   D24        0.56350   0.04165   0.14626   0.00000   0.14543   0.70894
   D25       -2.65285  -0.00637  -0.00326   0.00000  -0.00303  -2.65588
   D26       -3.13415   0.00444   0.01488   0.00000   0.01634  -3.11781
   D27        0.01309   0.00456   0.02618   0.00000   0.02751   0.04060
   D28        0.01036   0.00442   0.02072   0.00000   0.02103   0.03139
   D29       -3.12559   0.00455   0.03201   0.00000   0.03220  -3.09339
   D30        0.03527   0.00498   0.01225   0.00000   0.01373   0.04900
   D31       -3.11388   0.00248  -0.00313   0.00000  -0.00307  -3.11695
   D32       -3.10063   0.00514   0.02363   0.00000   0.02521  -3.07542
   D33        0.03340   0.00263   0.00825   0.00000   0.00841   0.04181
   D34        3.07204  -0.01445  -0.03058   0.00000  -0.02968   3.04236
   D35        2.91568   0.00767   0.01591   0.00000   0.01651   2.93219
   D36        1.32662  -0.01751  -0.06459   0.00000  -0.06438   1.26224
   D37       -1.74417   0.02548   0.07701   0.00000   0.07390  -1.67027
   D38       -0.06946  -0.01552  -0.03038   0.00000  -0.03026  -0.09971
   D39       -0.22581   0.00660   0.01610   0.00000   0.01593  -0.20989
   D40       -1.81487  -0.01858  -0.06439   0.00000  -0.06497  -1.87984
   D41        1.39752   0.02441   0.07721   0.00000   0.07332   1.47084
   D42        3.13888   0.00138  -0.00542   0.00000  -0.00654   3.13235
   D43        0.00521   0.00393   0.01069   0.00000   0.01041   0.01562
   D44       -0.00281   0.00244  -0.00562   0.00000  -0.00596  -0.00877
   D45       -3.13648   0.00499   0.01050   0.00000   0.01099  -3.12549
         Item               Value     Threshold  Converged?
 Maximum Force            0.106989     0.000450     NO 
 RMS     Force            0.027737     0.000300     NO 
 Maximum Displacement     0.524861     0.001800     NO 
 RMS     Displacement     0.131172     0.001200     NO 
 Predicted change in Energy=-1.105091D-01
 GradGradGradGradGradGradGradGradGradGradGradGradGradGradGradGradGradGrad

                          Input orientation:                          
 ---------------------------------------------------------------------
 Center     Atomic      Atomic             Coordinates (Angstroms)
 Number     Number       Type             X           Y           Z
 ---------------------------------------------------------------------
      1          6           0        2.718150    3.012456   -0.705634
      2          1           0        3.248555    2.084159   -0.879180
      3          1           0        3.067024    3.681070    0.072153
      4          6           0        1.639900    3.324827   -1.462448
      5          1           0        1.148614    4.263747   -1.228310
      6          6           0        1.096262    2.400400   -2.635057
      7          1           0        1.883606    3.073258   -2.886549
      8          6           0        0.106126    1.402471   -2.362747
      9          1           0        0.347811    0.549089   -1.741198
     10          6           0       -1.206597    1.484284   -2.894420
     11          1           0       -1.895070    0.697578   -2.617641
     12          6           0       -0.759760    3.504445   -4.211133
     13          1           0       -1.124385    4.271588   -4.885015
     14          6           0        0.656424    3.519401   -3.776466
     15          1           0        0.628982    4.347130   -3.121683
     16          1           0        0.819630    2.798490   -4.607816
     17          6           0       -1.648198    2.511085   -3.767351
     18          1           0       -2.677437    2.500107   -4.102299
 ---------------------------------------------------------------------
                    Distance matrix (angstroms):
                    1          2          3          4          5
     1  C    0.000000
     2  H    1.083135   0.000000
     3  H    1.083379   1.867649   0.000000
     4  C    1.353871   2.113582   2.125697   0.000000
     5  H    2.074214   3.046678   2.389772   1.085243   0.000000
     6  C    2.593803   2.795618   3.585109   1.589064   2.335325
     7  H    2.335927   2.621246   3.244045   1.466542   2.169617
     8  C    3.487226   3.541261   4.459559   2.618865   3.249712
     9  H    3.571986   3.393204   4.526772   3.074398   3.834453
    10  C    4.746550   4.926400   5.647146   3.679767   4.006039
    11  H    5.504202   5.603725   6.384246   4.553343   4.889971
    12  C    4.962504   5.402380   5.746478   3.653205   3.621556
    13  H    5.815300   6.320930   6.518445   4.500177   4.305587
    14  C    3.733326   4.144071   4.544117   2.521858   2.699890
    15  H    3.461686   4.124562   4.072870   2.195477   1.965155
    16  H    4.344788   4.506957   5.266102   3.292903   3.698144
    17  C    5.356350   5.701051   6.192251   4.097114   4.164218
    18  H    6.396264   6.758615   7.198579   5.127219   5.099892
                    6          7          8          9         10
     6  C    0.000000
     7  H    1.065784   0.000000
     8  C    1.431916   2.495061   0.000000
     9  H    2.187811   3.168899   1.083049   0.000000
    10  C    2.491926   3.474802   1.418666   2.149580   0.000000
    11  H    3.442088   4.471528   2.136968   2.412616   1.081438
    12  C    2.673527   2.987947   2.929947   4.007671   2.452437
    13  H    3.673544   3.804979   4.013456   5.089985   3.426119
    14  C    1.657841   1.580181   2.604386   3.613906   2.896645
    15  H    2.060319   1.803363   3.085511   4.050915   3.408355
    16  H    2.031446   2.042131   2.738301   3.674223   2.961158
    17  C    2.970926   3.683136   2.505911   3.455253   1.418217
    18  H    4.050128   4.754961   3.461079   4.305043   2.157368
                   11         12         13         14         15
    11  H    0.000000
    12  C    3.421498   0.000000
    13  H    4.302150   1.084240   0.000000
    14  C    3.976894   1.481465   2.228440   0.000000
    15  H    4.465885   1.955920   2.487839   1.055760   0.000000
    16  H    3.967899   1.774882   2.454802   1.112426   2.154814
    17  C    2.161385   1.404645   2.150099   2.515565   2.995580
    18  H    2.462806   2.167492   2.482491   3.501393   3.912225
                   16         17         18
    16  H    0.000000
    17  C    2.622816   0.000000
    18  H    3.545992   1.082424   0.000000
 Stoichiometry    C8H10
 Framework group  C1[X(C8H10)]
 Deg. of freedom    48
 Full point group                 C1      NOp   1
 Largest Abelian subgroup         C1      NOp   1
 Largest concise Abelian subgroup C1      NOp   1
                         Standard orientation:                         
 ---------------------------------------------------------------------
 Center     Atomic      Atomic             Coordinates (Angstroms)
 Number     Number       Type             X           Y           Z
 ---------------------------------------------------------------------
      1          6           0        3.101259    0.115143   -0.159763
      2          1           0        3.315454    0.699962    0.726402
      3          1           0        3.916796   -0.166354   -0.815025
      4          6           0        1.828415   -0.259141   -0.429481
      5          1           0        1.682558   -0.833387   -1.338722
      6          6           0        0.594303    0.098248    0.505594
      7          1           0        1.148696   -0.774733    0.763370
      8          6           0       -0.146201    1.304358    0.288027
      9          1           0        0.318426    2.268043    0.456633
     10          6           0       -1.498387    1.286740   -0.140805
     11          1           0       -1.971921    2.245647   -0.301344
     12          6           0       -1.694646   -1.156852   -0.071627
     13          1           0       -2.298076   -2.043537   -0.230495
     14          6           0       -0.306628   -1.291287    0.428443
     15          1           0        0.154139   -1.679294   -0.438606
     16          1           0       -0.751909   -1.108950    1.431423
     17          6           0       -2.251824    0.102936   -0.346427
     18          1           0       -3.271910    0.191728   -0.697402
 ---------------------------------------------------------------------
 Rotational constants (GHZ):      4.3873460      1.4356594      1.1677236
 Standard basis: 6-31G(d) (6D, 7F)
 There are   140 symmetry adapted basis functions of A   symmetry.
 Integral buffers will be    131072 words long.
 Raffenetti 2 integral format.
 Two-electron integral symmetry is turned on.
   140 basis functions,   264 primitive gaussians,   140 cartesian basis functions
    29 alpha electrons       29 beta electrons
       nuclear repulsion energy       337.5662925038 Hartrees.
 NAtoms=   18 NActive=   18 NUniq=   18 SFac= 1.00D+00 NAtFMM=   60 NAOKFM=F Big=F
 One-electron integrals computed using PRISM.
 NBasis=   140 RedAO= T  NBF=   140
 NBsUse=   140 1.00D-06 NBFU=   140
 Initial guess read from the read-write file.
 B after Tr=     0.000000    0.000000    0.000000
         Rot=    1.000000    0.000000    0.000000    0.000000 Ang=   0.00 deg.
 Initial guess orbital symmetries:
       Occupied  (A) (A) (A) (A) (A) (A) (A) (A) (A) (A) (A) (A)
                 (A) (A) (A) (A) (A) (A) (A) (A) (A) (A) (A) (A)
                 (A) (A) (A) (A) (A)
       Virtual   (A) (A) (A) (A) (A) (A) (A) (A) (A) (A) (A) (A)
                 (A) (A) (A) (A) (A) (A) (A) (A) (A) (A) (A) (A)
                 (A) (A) (A) (A) (A) (A) (A) (A) (A) (A) (A) (A)
                 (A) (A) (A) (A) (A) (A) (A) (A) (A) (A) (A) (A)
                 (A) (A) (A) (A) (A) (A) (A) (A) (A) (A) (A) (A)
                 (A) (A) (A) (A) (A) (A) (A) (A) (A) (A) (A) (A)
                 (A) (A) (A) (A) (A) (A) (A) (A) (A) (A) (A) (A)
                 (A) (A) (A) (A) (A) (A) (A) (A) (A) (A) (A) (A)
                 (A) (A) (A) (A) (A) (A) (A) (A) (A) (A) (A) (A)
                 (A) (A) (A)
 Harris functional with IExCor=  402 diagonalized for initial guess.
 ExpMin= 1.61D-01 ExpMax= 3.05D+03 ExpMxC= 4.57D+02 IAcc=1 IRadAn=         1 AccDes= 0.00D+00
 HarFok:  IExCor=  402 AccDes= 0.00D+00 IRadAn=         1 IDoV= 1
 ScaDFX=  1.000000  1.000000  1.000000  1.000000
 FoFCou: FMM=F IPFlag=           0 FMFlag=      100000 FMFlg1=           0
         NFxFlg=           0 DoJE=T BraDBF=F KetDBF=T FulRan=T
         Omega=  0.000000  0.000000  1.000000  0.000000  0.000000 ICntrl=     500 IOpCl=  0
         NMat0=    1 NMatS0=    1 NMatT0=    0 NMatD0=    1 NMtDS0=    0 NMtDT0=    0
         I1Cent=           4 NGrid=           0.
 Petite list used in FoFCou.
 Requested convergence on RMS density matrix=1.00D-08 within 128 cycles.
 Requested convergence on MAX density matrix=1.00D-06.
 Requested convergence on             energy=1.00D-06.
 No special actions if energy rises.
 Integral accuracy reduced to 1.0D-05 until final iterations.
 Initial convergence to 1.0D-05 achieved.  Increase integral accuracy.
 SCF Done:  E(RB3LYP) =  -310.551978282     A.U. after   15 cycles
             Convg  =    0.5103D-08             -V/T =  2.0091
 Calling FoFJK, ICntrl=      2127 FMM=F ISym2X=0 I1Cent= 0 IOpClX= 0 NMat=1 NMatS=1 NMatT=0.
 ***** Axes restored to original set *****
 -------------------------------------------------------------------
 Center     Atomic                   Forces (Hartrees/Bohr)
 Number     Number              X              Y              Z
 -------------------------------------------------------------------
      1        6          -0.016376740    0.002656528   -0.015002116
      2        1           0.003953337   -0.002680615    0.002146460
      3        1           0.001809036   -0.000291276    0.001433436
      4        6          -0.007235173   -0.019416188    0.056695871
      5        1          -0.005445926    0.005495382   -0.002246244
      6        6          -0.026945239    0.087617752    0.030638218
      7        1           0.080296214   -0.051261784   -0.036701986
      8        6          -0.045687233   -0.026724177   -0.025819028
      9        1           0.000239146   -0.000256159    0.005585361
     10        6           0.060188441   -0.019027041    0.029283965
     11        1          -0.002138357   -0.002362610    0.002113349
     12        6          -0.084878303   -0.036773086    0.034471065
     13        1           0.000851061    0.005814473    0.000017085
     14        6          -0.079418363   -0.081746719   -0.012501193
     15        1           0.038915348    0.047515098   -0.021825045
     16        1           0.056012546    0.040317862   -0.015708620
     17        6           0.028340620    0.050360944   -0.029805754
     18        1          -0.002480415    0.000761616   -0.002774826
 -------------------------------------------------------------------
 Cartesian Forces:  Max     0.087617752 RMS     0.035691013

 GradGradGradGradGradGradGradGradGradGradGradGradGradGradGradGradGradGrad
 Berny optimization.
 Using GEDIIS/GDIIS optimizer.
 Internal  Forces:  Max     0.052603998 RMS     0.015745381
 Search for a local minimum.
 Step number   3 out of a maximum of  108
 All quantities printed in internal units (Hartrees-Bohrs-Radians)
 Mixed Optimization -- RFO/linear search
 Update second derivatives using D2CorX and points    2    3
 ITU=  0  1  0
 Use linear search instead of GDIIS.
 Linear search step of   1.072 exceeds DXMaxT=   0.505 scaled by   0.941
 Quartic linear search produced a step of  1.68288.
 Iteration  1 RMS(Cart)=  0.17040874 RMS(Int)=  0.03261499
 Iteration  2 RMS(Cart)=  0.05410774 RMS(Int)=  0.00701261
 Iteration  3 RMS(Cart)=  0.00129866 RMS(Int)=  0.00694691
 Iteration  4 RMS(Cart)=  0.00001051 RMS(Int)=  0.00694691
 Iteration  5 RMS(Cart)=  0.00000009 RMS(Int)=  0.00694691
 Variable       Old X    -DE/DX   Delta X   Delta X   Delta X     New X
                                 (Linear)    (Quad)   (Total)
    R1        2.04683   0.00380   0.02783   0.00000   0.02753   2.07436
    R2        2.04729   0.00143   0.02836   0.00000   0.02836   2.07565
    R3        2.55845  -0.01478  -0.00282   0.00000  -0.00286   2.55558
    R4        2.05081   0.00674   0.03232   0.00000   0.03232   2.08313
    R5        3.00289  -0.01352   0.10516   0.00000   0.11476   3.11765
    R6        2.77136   0.04424   0.37576   0.00000   0.36848   3.13984
    R7        2.01404   0.00892  -0.01103   0.00000  -0.02263   1.99141
    R8        2.70593   0.01836   0.16265   0.00000   0.16298   2.86891
    R9        3.13286   0.00135   0.23428   0.00000   0.25303   3.38589
   R10        2.98611   0.04527   0.43464   0.00000   0.42108   3.40719
   R11        2.04667   0.00346   0.02767   0.00000   0.02767   2.07433
   R12        2.68089  -0.05260  -0.25724   0.00000  -0.25651   2.42438
   R13        2.04362   0.00362   0.02425   0.00000   0.02425   2.06787
   R14        2.68004   0.02374   0.13359   0.00000   0.13392   2.81396
   R15        2.04892   0.00382   0.03019   0.00000   0.03019   2.07911
   R16        2.79956   0.04280   0.26768   0.00000   0.26678   3.06634
   R17        2.65440  -0.05155  -0.28700   0.00000  -0.28759   2.36680
   R18        1.99510   0.02271  -0.03019   0.00000  -0.03019   1.96491
   R19        2.10218  -0.00617   0.08995   0.00000   0.08995   2.19213
   R20        2.04549   0.00321   0.02634   0.00000   0.02634   2.07183
    A1        2.07861  -0.00366  -0.01549   0.00000  -0.01559   2.06302
    A2        2.09229   0.00356  -0.00680   0.00000  -0.00664   2.08565
    A3        2.11226   0.00010   0.02226   0.00000   0.02217   2.13443
    A4        2.02589   0.00402  -0.08155   0.00000  -0.08318   1.94271
    A5        2.15405   0.00753   0.07132   0.00000   0.08155   2.23560
    A6        1.95077  -0.01172   0.01652   0.00000   0.02392   1.97469
    A7        2.10324  -0.01155   0.01023   0.00000   0.00158   2.10482
    A8        2.01877   0.00801   0.08183   0.00000   0.08508   2.10385
    A9        2.09631  -0.01363  -0.08171   0.00000  -0.08645   2.00986
   A10        1.77844   0.02173   0.33786   0.00000   0.33665   2.11509
   A11        2.00191  -0.00200  -0.10385   0.00000  -0.10779   1.89412
   A12        1.94915  -0.02564   0.17137   0.00000   0.14258   2.09173
   A13        2.09898  -0.00289   0.00074   0.00000   0.00089   2.09987
   A14        2.12748   0.00417   0.03926   0.00000   0.03894   2.16642
   A15        2.05670  -0.00126  -0.04004   0.00000  -0.03987   2.01683
   A16        2.03892  -0.00269  -0.05999   0.00000  -0.06014   1.97878
   A17        2.16585   0.00411   0.07565   0.00000   0.07590   2.24175
   A18        2.07829  -0.00136  -0.01584   0.00000  -0.01612   2.06217
   A19        2.09058  -0.00565  -0.00200   0.00000  -0.00085   2.08972
   A20        2.07605   0.00089  -0.01830   0.00000  -0.01717   2.05888
   A21        2.11656   0.00476   0.02029   0.00000   0.01802   2.13458
   A22        2.03623  -0.01691  -0.05883   0.00000  -0.05891   1.97732
   A23        1.68010   0.00303   0.07932   0.00000   0.07501   1.75510
   A24        1.60899   0.01548   0.08678   0.00000   0.09285   1.70184
   A25        2.70165  -0.01683  -0.13450   0.00000  -0.12982   2.57182
   A26        1.46285   0.01013   0.09699   0.00000   0.10698   1.56982
   A27        1.69509  -0.01837  -0.07370   0.00000  -0.05731   1.63778
   A28        1.73659   0.00177  -0.03049   0.00000  -0.01586   1.72073
   A29        1.48513   0.02632   0.12495   0.00000   0.13126   1.61639
   A30        2.10544   0.00342   0.01443   0.00000   0.01289   2.11833
   A31        2.07054   0.00014   0.02948   0.00000   0.02995   2.10049
   A32        2.10694  -0.00354  -0.04431   0.00000  -0.04390   2.06304
   A33        3.12558  -0.01579  -0.02000   0.00000  -0.03322   3.09236
[...]
 0576193,0.0652833,0.0446606,0.0408663,0.0474425,-0.0619312,0.0165242,-
 0.0396723,0.0316575,0.1048326,-0.0543503,-0.0172318,-0.0380556,0.06170
 71,0.0086701,-0.0305874,0.0540335,0.1200046,-0.1442521,0.0610851,0.028
 3287,0.0341884,0.0044182,-0.027723,0.0047063,-0.0133081,0.0034172,0.07
 38319,0.0518903,0.0817162,0.1367276,0.0077749,0.0385113,0.0395953,-0.1
 4195,-0.2023192,0.011958,0.0331308,-0.0382779,0.0067224,-0.0809031,0.0
 727934,-0.0369817,0.0962973,0.0756593,-0.0565582,0.1391931,-0.0851815,
 -0.0112592,0.1628624,-0.1687561,0.0135565,-0.0680324,-0.0976173,-0.048
 2191,-0.1026455,-0.0066745,-0.0791179,-0.0551417,0.0612133,0.0318595,0
 .0538321,0.1202293,0.1119825,0.0526544,-0.0436855,-0.0370488,-0.054767
 5,-0.0352897,-0.0603272,-0.1470925,-0.1340924,-0.0112458,0.0497363,-0.
 0389226,0.0760492,-0.060371,0.1030119,-0.0120641,0.0869914,0.0783599,0
 .0228118,0.0397703,-0.0458168,0.0133479,0.1112643,0.001352,-0.0383639,
 0.094902,0.0963635,-0.0226501,-0.0788922,0.0121938,-0.0835522,-0.09653
 03,0.0212102,-0.0104132,-0.0148245,0.0709482,-0.0365641,-0.0279291,0.0
 554516,0.0732866,0.0441297,-0.0891554,0.0143852,-0.0510095,-0.1482271,
 0.1597168,-0.1889024,0.1368868,-0.078632,-0.0375314,-0.0742919,-0.0154
 986,-0.0324119,-0.1328362,-0.14668,0.0277549,-0.0244355,0.0246283,0.04
 43374,0.0376267,-0.0074673,0.0236562,0.1080566\Polar=97.6200622,3.8507
 16,71.0441157,17.7800617,-6.2926129,69.1836534\PG=C01 [X(C8H10)]\NImag
 =0\\0.76346158,-0.09213439,0.25894625,0.16305149,0.22871675,0.58779711
 ,-0.25641733,0.10198131,0.07033133,0.27556417,0.10364086,-0.08949795,-
 0.04631926,-0.11349738,0.08390886,0.07353051,-0.04725027,-0.08147545,-
 0.07583985,0.05102785,0.07587812,-0.05676196,0.00489059,-0.00267242,0.
 00318276,0.01199195,0.02186115,0.05272316,0.00318108,-0.10876031,-0.13
 125861,-0.00118456,-0.00335693,-0.00978148,-0.00300326,0.10522147,-0.0
 0603313,-0.13059698,-0.26689514,-0.00145974,-0.00317627,-0.00456420,0.
 00907740,0.14338144,0.28087249,-0.43243628,-0.01263630,-0.21286960,-0.
 02158190,-0.00087505,-0.01563955,0.00237238,0.00064998,0.00195240,0.79
 048046,-0.00989660,-0.06823312,-0.04221526,0.01278405,0.00520330,0.006
 65856,-0.01492031,0.00184930,-0.00882498,-0.08789036,0.26829723,-0.210
 34071,-0.04271787,-0.22718764,0.00959418,-0.00062891,0.00922185,-0.026
 18665,-0.00106599,-0.01199368,0.15990251,0.15917114,0.51548423,-0.0203
 9695,0.01276771,0.01022828,-0.00215142,0.00156478,-0.00410875,0.000757
 51,-0.00185387,0.00070624,-0.24904359,0.09912283,0.07497038,0.26645508
 ,-0.00209783,0.00574216,-0.00083500,0.00147884,0.00892693,-0.00479572,
 -0.00174356,-0.00508647,0.00360776,0.09981443,-0.09334367,-0.04440783,
 -0.10998938,0.08753862,-0.01746842,0.00682374,0.00891023,-0.00437734,-
 0.00476701,0.00142793,0.00112513,0.00355429,-0.00080584,0.07770967,-0.
 04703000,-0.08414927,-0.07931249,0.05472609,0.08407626,-0.00019236,-0.
 01361869,-0.02681471,0.00057064,-0.00265516,-0.00037002,-0.00293673,0.
 00231090,-0.00364422,-0.08416606,0.01020496,0.00534758,0.00271643,0.01
 162598,0.02328255,0.58496144,-0.00349092,0.00227075,-0.00625036,-0.000
 66418,-0.00565901,0.00455255,0.00370316,0.01056834,-0.00448127,0.00714
 061,-0.10035396,-0.04824868,-0.00164269,-0.00514122,-0.01230833,-0.047
 94324,0.45320087,-0.00610818,-0.01279704,-0.01747435,0.00322489,0.0034
 9147,-0.00043637,-0.00189214,-0.00479152,0.00365992,-0.00865433,-0.055
 14711,-0.16293246,-0.00172980,-0.00523219,-0.00752769,-0.03077552,0.01
 083624,0.44960798,0.00116648,-0.00117246,-0.00136404,0.00045438,0.0001
 0276,0.00045237,0.00035554,-0.00009343,-0.00000535,0.00075047,0.000029
 58,0.00003316,0.00083259,-0.00035771,-0.00075397,-0.25669168,0.0839248
 9,0.05470401,0.27964207,0.00036976,0.00016133,0.00141409,-0.00075274,0
 .00037691,-0.00019700,-0.00019165,0.00001446,0.00032628,0.01680373,-0.
 00751259,-0.00658384,-0.00030854,-0.00027299,-0.00328768,0.08334479,-0
 .08121809,-0.02003610,-0.08898696,0.09038713,0.00149341,0.00055537,0.0
 0111800,-0.00121176,0.00027843,0.00005808,-0.00011515,0.00025523,0.000
 44320,0.02757559,-0.01337993,-0.01103159,-0.00095359,-0.00287940,-0.00
 427056,0.05339034,-0.01989317,-0.06023357,-0.05644696,0.02315413,0.073
 77549,-0.00006521,0.00001497,0.00062142,-0.00000911,-0.00056748,0.0002
 5062,0.00038306,0.00052475,-0.00048356,-0.00494630,-0.01045679,-0.0120
 2365,0.00074621,0.00225392,0.00080034,-0.12923962,-0.04947554,0.012697
 13,-0.02050022,-0.02713650,0.00200555,0.75763216,0.00093119,0.00071545
 ,0.00072318,-0.00005906,-0.00005082,-0.00007222,0.00014079,0.00041742,
 -0.00004284,-0.01420900,-0.01861897,-0.01139032,-0.00006345,0.00114642
 ,0.00161113,-0.04943147,-0.14644241,0.02374643,0.00641597,0.00943386,-
 0.00201250,-0.05487845,0.54224164,-0.00035894,-0.00196526,-0.00386726,
 -0.00038028,-0.00112023,0.00056671,0.00004895,0.00219586,-0.00175018,-
 0.01898050,-0.02083260,0.00381361,0.00018807,0.00014586,0.00077730,0.0
 0706922,0.01366762,-0.06874831,0.00368241,0.00631568,-0.00069029,0.157
 07826,-0.16904108,0.24007235,-0.00006673,0.00021126,-0.00041481,-0.000
 06474,-0.00003420,0.00004009,-0.00007826,0.00000635,-0.00002464,0.0002
 1677,0.00036375,0.00135117,-0.00000912,-0.00002108,-0.00011294,0.00778
 011,-0.01762262,0.00886380,0.00117379,0.00088694,0.00020325,-0.0871917
 1,0.07626249,-0.04551351,0.09194569,-0.00027100,0.00015153,-0.00082893
 ,-0.00008462,-0.00006574,0.00006409,-0.00009965,0.00002186,-0.00008347
 ,0.00026108,0.00071738,0.00146069,0.00002991,-0.00011300,0.00001944,0.
 00934903,-0.01322531,0.00922402,-0.00034544,0.00107576,0.00002299,0.07
 903562,-0.25150958,0.10742229,-0.08416787,0.26215519,-0.00010413,0.000
 29659,0.00002177,-0.00000261,-0.00001946,0.00002051,0.00001428,-0.0000
 1715,0.00002264,0.00060277,0.00025541,0.00003084,-0.00001189,-0.000047
 00,0.00008540,-0.00039083,0.00371092,-0.00070287,-0.00026202,-0.000307
 48,0.00037599,-0.04918365,0.10822132,-0.08936389,0.05068952,-0.1189957
 8,0.08331395,0.00108278,-0.00070459,-0.00017317,0.00008997,-0.00004418
 ,0.00005166,-0.00004911,0.00018714,-0.00018063,-0.00360874,-0.00014216
 ,0.00340881,0.00027238,-0.00045764,-0.00043050,-0.02433115,-0.00613182
 ,-0.00583679,-0.00059274,-0.00189535,0.00075757,-0.48844978,0.03759869
 ,-0.10150491,-0.00740330,-0.00076650,0.00022687,0.80908239,-0.00016852
 ,-0.00076043,-0.00150233,-0.00001407,-0.00036037,0.00029439,-0.0000980
 3,0.00055207,-0.00063844,-0.00229694,-0.00017478,0.00244984,0.00035495
 ,-0.00019682,-0.00074104,-0.02580471,0.00418214,-0.00775825,-0.0035250
 9,-0.00433775,0.00083459,0.02485295,-0.10789394,0.02998146,0.02856471,
 0.00070737,0.00685799,0.06346768,0.55274839,-0.00010797,0.00015821,0.0
 0069248,0.00008841,0.00022497,-0.00025598,0.00006946,-0.00019017,0.000
 21310,-0.00082976,0.00009655,0.00014844,0.00014203,0.00021892,0.000510
 79,0.00039320,-0.00276601,0.00665214,0.00157858,0.00131661,-0.00015599
 ,-0.09086335,0.03046182,-0.08394436,-0.01453781,0.00177587,0.00231428,
 0.09745813,-0.15747005,0.20712572,0.00003239,-0.00018731,-0.00039175,0
 .00000250,-0.00008192,0.00005830,-0.00001901,0.00010104,-0.00015057,-0
 .00069145,-0.00025534,0.00068468,0.00004454,-0.00007593,-0.00009823,-0
 .00262772,0.00260825,-0.00299195,-0.00075854,-0.00079319,0.00003097,-0
 .01760444,-0.02668138,0.00584281,0.00085799,0.00077259,0.00101338,-0.1
 7143143,-0.13263538,0.02911866,0.18141270,-0.00001789,0.00013077,0.000
 17662,0.00002352,0.00005347,-0.00002405,-0.00001072,-0.00014427,0.0000
 8540,0.00082556,0.00070094,-0.00040740,-0.00000832,-0.00000138,0.00004
 498,-0.00003484,0.00253075,0.00420492,-0.00021436,-0.00047937,-0.00002
 422,0.00340864,0.00640271,-0.00015892,0.00041193,0.00004345,-0.0027744
 2,-0.13342195,-0.21097555,0.04369543,0.14477227,0.21976574,-0.00008590
 ,0.00024241,0.00032688,0.00007405,0.00010808,-0.00005133,0.00000227,-0
 .00026072,0.00017510,0.00180605,0.00167606,-0.00043840,0.00000675,-0.0
 0001053,-0.00007673,-0.00428195,0.00443943,0.00947905,-0.00110327,-0.0
 0163287,0.00024381,-0.00586277,-0.00556877,0.00485625,0.00152758,-0.00
 276275,-0.00568726,0.03022008,0.04373174,-0.04793425,-0.02911330,-0.05
 044222,0.03964543,-0.00021466,0.00013259,0.00051989,-0.00018957,-0.000
 14530,0.00009996,0.00009132,0.00037482,-0.00022394,0.00160485,-0.00119
 689,0.00036002,-0.00018669,0.00017239,-0.00018490,-0.01164459,0.008761
 94,-0.00759449,0.00104108,-0.00133755,0.00016222,-0.00805195,0.0054767
 0,-0.00054152,-0.00048640,-0.00094080,-0.00045370,0.02370848,-0.007181
 76,0.00455618,-0.00098322,0.00395866,-0.00154151,0.61819568,0.00004203
 ,0.00063538,0.00048558,-0.00028209,-0.00018325,0.00004540,-0.00000820,
 0.00003209,0.00002410,0.00100230,0.00040199,-0.00227467,-0.00037282,0.
 00024639,0.00068785,0.02280058,-0.00668616,0.00024368,0.00148794,-0.00
 226837,0.00409618,-0.01091578,-0.00128591,-0.00072466,0.00021034,0.000
 14022,-0.00120819,-0.00231904,-0.03757587,0.02415072,0.00217859,-0.003
 46836,0.00169287,0.07776898,0.66691138,0.00011417,0.00024012,0.0000551
 4,0.00005679,-0.00010168,0.00002991,0.00009958,-0.00008340,0.00001512,
 0.00032989,0.00016625,-0.00007716,-0.00029943,-0.00013593,-0.00068559,
 -0.02407469,0.00518945,0.00447000,-0.00132161,0.00299074,-0.00345264,0
 .00310930,-0.00075942,0.00117794,0.00020143,-0.00037214,-0.00027286,0.
 00413173,0.02052943,-0.00316988,-0.00119506,0.00178195,0.00072004,-0.0
 5992117,-0.26250537,0.27077364,0.00001683,-0.00012694,-0.00023597,0.00
 006417,0.00004934,-0.00000097,-0.00005049,-0.00012133,-0.00001364,-0.0
 0006010,0.00049672,0.00028701,0.00005116,-0.00010593,-0.00015823,-0.00
 543130,0.00013530,0.00271654,-0.00043766,0.00112114,-0.00151927,-0.000
 32286,-0.00087071,0.00022350,0.00028751,0.00009623,-0.00006224,-0.0024
 1283,-0.00167153,0.00111832,0.00046798,-0.00101516,0.00037341,-0.09168
 496,0.08493368,-0.03994714,0.09285717,-0.00001898,0.00005054,0.0000510
 4,-0.00000711,-0.00000973,-0.00001471,0.00000392,-0.00001110,0.0000220
 9,-0.00002883,0.00026128,-0.00023896,-0.00000869,0.00000454,0.00004423
 ,-0.00009349,0.00055787,-0.00044075,0.00006409,-0.00008610,0.00040572,
 0.00016241,0.00018184,-0.00044456,0.00031616,-0.00029929,-0.00064110,-
 0.00396959,0.00165907,0.00456068,0.00040014,-0.00065370,0.00047671,0.0
 8196151,-0.24996825,0.10638614,-0.08711427,0.26356774,0.00000704,-0.00
 003817,-0.00006380,0.00001826,0.00000055,-0.00002639,-0.00004033,-0.00
 002578,-0.00003443,-0.00031807,0.00063197,-0.00005062,0.00006881,0.000
 02916,0.00003511,-0.00042848,-0.00065496,0.00141274,0.00021864,-0.0000
 6738,0.00038958,0.00097233,-0.00050875,-0.00042179,0.00026617,-0.00053
 078,-0.00129495,0.00257497,0.00539225,0.00883187,-0.00057833,0.0009230
 8,-0.00025097,-0.03644397,0.10660468,-0.08614125,0.04177860,-0.1182696
 8,0.07996244,0.00068362,0.00031954,0.00014231,0.00036769,0.00025968,-0
 .00022338,0.00023078,-0.00034778,0.00003755,-0.00048217,-0.00196516,-0
 .00480246,0.00021634,-0.00005619,0.00015952,-0.08744431,0.01693058,-0.
 01212458,-0.00785793,0.01894265,-0.02468706,0.00953198,-0.01204893,0.0
 1219542,-0.00269801,-0.00291036,0.00167882,-0.00308157,0.00251370,-0.0
 0296173,0.00012078,0.00031005,-0.00057795,-0.20318284,0.02003450,-0.00
 104072,-0.00597708,-0.00205160,-0.00144255,0.50002238,-0.00065667,-0.0
 0268944,-0.00324772,0.00013218,0.00069703,-0.00032368,-0.00100434,-0.0
 0139641,0.00018107,-0.00618137,0.01407125,-0.00634028,0.00045420,0.000
 14033,-0.00015247,0.01323093,-0.10700700,0.03670647,0.00315110,-0.0068
 9217,0.00901806,0.00637826,-0.02326614,0.02279532,-0.00325637,-0.00262
 599,0.00000227,-0.00070625,0.00107922,-0.00339902,0.00053154,-0.000093
 23,-0.00043482,0.01935197,-0.09112287,0.00633627,0.02340992,-0.0001136
 4,-0.00042881,0.05478092,0.54777783,0.00259393,-0.00093201,-0.00120085
 ,0.00003970,0.00081938,-0.00034054,-0.00098996,-0.00156449,0.00066823,
 -0.01239881,0.01378947,-0.02998403,0.00021625,-0.00028775,0.00158895,-
 0.02013475,0.04222294,-0.12589316,0.00075397,-0.00301759,0.00183891,0.
 00233929,0.00891200,0.00003123,-0.00112269,-0.00081579,0.00227262,-0.0
 0165608,-0.00553746,-0.00563351,-0.00027593,-0.00036112,-0.00016143,-0
 .00416310,0.01108297,-0.07464008,-0.01421162,0.00156009,0.00291618,-0.
 01655634,0.03502570,0.49294382,-0.00013261,0.00016310,0.00026915,-0.00
 004464,0.00005145,-0.00001947,-0.00000361,-0.00004809,0.00008092,0.001
 06543,0.00021133,0.00024941,-0.00011672,-0.00005403,0.00009169,0.00555
 210,0.00894266,0.00051916,-0.00004106,-0.00019802,0.00041046,-0.000855
 97,0.00049134,-0.00173358,0.00039108,0.00051268,0.00000936,0.00057208,
 0.00034135,-0.00091928,0.00007455,-0.00009570,0.00010269,-0.01806148,-
 0.03085625,-0.00111253,0.00142218,0.00061541,0.00035129,-0.11234464,-0
 .11158063,-0.00891721,0.12400662,0.00039255,0.00057690,0.00021090,0.00
 005225,0.00000949,-0.00004267,0.00001438,-0.00021728,0.00016097,-0.000
 75328,0.00104324,-0.00179410,0.00000496,0.00005665,0.00041626,-0.00952
 041,-0.01614423,-0.00017928,0.00037069,-0.00023924,0.00003047,0.002751
 13,-0.00091829,0.00261440,-0.00076436,-0.00076118,0.00009220,0.0000892
 5,0.00020027,0.00019303,-0.00008498,-0.00002112,-0.00015647,0.00448312
 ,0.00791795,0.00100340,-0.00066929,0.00089605,0.00004834,-0.11238495,-
 0.24388102,-0.01380802,0.12104985,0.26425332,-0.00049664,-0.00026027,0
 .00014665,0.00006163,0.00008119,-0.00003781,0.00002586,-0.00001262,0.0
 0002118,0.00154863,0.00080724,0.00166797,0.00019476,-0.00003455,-0.000
 20458,0.01364109,0.02274009,-0.00132434,-0.00028541,-0.00028060,0.0002
 3379,-0.00320249,0.00267205,-0.00389185,0.00099929,0.00131660,0.000272
 39,-0.00009474,0.00040415,-0.00029650,0.00006343,-0.00002352,0.0001094
 5,0.00261709,0.00042101,-0.00116342,-0.00034271,-0.00019619,0.00041114
 ,-0.00956950,-0.01522918,-0.04826015,0.01035842,0.01372765,0.05334270,
 0.00005659,-0.00006595,-0.00027661,0.00001823,0.00015898,-0.00008484,-
 0.00016269,-0.00035117,0.00016005,0.00018836,0.00218811,-0.00181768,-0
 .00002825,-0.00017180,-0.00004396,0.00121697,-0.00368347,-0.00920870,0
 .00080606,-0.00032737,-0.00083757,0.00013264,-0.00065094,0.00003516,0.
 00016345,-0.00007365,-0.00020809,0.00028317,0.00173833,0.00091760,0.00
 004186,-0.00013399,-0.00001488,-0.01517788,0.01212229,0.02991248,-0.00
 063675,0.00016126,-0.00085545,-0.06014695,0.02665369,0.05831482,0.0047
 8443,-0.00684335,-0.01485172,0.07101244,0.00008018,0.00070832,0.000684
 21,-0.00002205,-0.00018183,0.00004480,0.00028862,0.00031898,-0.0000403
 7,0.00075797,-0.00274187,0.00198523,-0.00007897,0.00012049,0.00022893,
 -0.00341410,0.00893355,0.01957247,-0.00067143,0.00143468,-0.00040504,0
 .00105772,0.00080625,-0.00187976,-0.00009612,0.00028179,0.00057158,-0.
 00120669,0.00032216,-0.00152977,-0.00004547,0.00007401,0.00009148,0.00
 318673,-0.00010084,-0.00276754,0.00044216,0.00008246,0.00047326,0.0242
 3081,-0.09296193,-0.09130529,0.00748994,-0.01275200,-0.02577560,-0.031
 34098,0.09682050,0.00054478,-0.00053621,-0.00101002,-0.00001266,0.0002
 6167,-0.00010508,-0.00045040,-0.00055761,0.00011531,-0.00266337,0.0052
 9487,-0.00224726,0.00016778,-0.00017402,0.00023837,0.00398199,-0.01112
 561,-0.02316507,-0.00043098,-0.00048391,0.00146348,0.00089444,-0.00034
 677,0.00043845,0.00019476,-0.00011194,-0.00057006,-0.00111355,0.001950
 61,-0.00006918,0.00003582,-0.00000208,-0.00008308,0.00657704,0.0006460
 3,0.00252990,0.00066217,-0.00021000,-0.00099721,0.05004070,-0.08896240
 ,-0.22968823,0.00000459,-0.00169300,-0.00184797,-0.05776395,0.09890951
 ,0.25283585,0.00015946,0.00022336,0.00014533,0.00013223,0.00008242,-0.
 00006904,-0.00000782,-0.00032367,0.00024132,0.00045669,0.00119816,-0.0
 0122512,-0.00016357,-0.00020071,-0.00020819,0.00126455,-0.00142105,0.0
 0389912,0.00070250,0.00043616,-0.00022054,-0.01215810,0.02962029,-0.01
 689702,-0.00439376,-0.00028227,-0.00342030,-0.12705141,0.05296446,-0.0
 2569668,0.01039233,-0.01910583,0.00871482,-0.27725288,-0.18261410,0.09
 252055,0.01066201,0.00987968,-0.00624859,-0.02875178,-0.02139765,0.015
 23467,-0.00537139,0.00161687,-0.00079932,-0.00232474,-0.00069769,-0.00
 074438,0.76356686,0.00010447,-0.00017113,0.00000901,0.00011279,0.00018
 182,-0.00018102,0.00005741,0.00001989,0.00006845,-0.00239001,-0.001689
 85,0.00115974,0.00003886,0.00024297,0.00010590,-0.00060575,-0.00003662
 ,-0.00148695,-0.00024590,0.00031526,0.00000879,0.03278969,-0.00619150,
 0.00858138,-0.00265693,0.00310695,0.00313814,0.02309800,-0.19986321,0.
 05795833,0.01008332,-0.01474346,0.00941349,-0.16988261,-0.29103822,0.1
 2286840,-0.01913767,-0.01568387,0.00957231,-0.00573010,0.00880561,-0.0
 0174066,0.00334281,0.00003359,-0.00045829,0.00203927,-0.00123074,-0.00
 278483,0.09156786,0.57903585,-0.00023019,0.00011061,0.00013934,-0.0002
 1477,-0.00017146,0.00009439,0.00003308,0.00022033,-0.00015482,0.001040
 57,-0.00109761,-0.00027024,-0.00046021,0.00009829,0.00005863,0.0029973
 6,-0.00187531,-0.00639436,0.00048971,0.00052405,-0.00022466,-0.0191994
 6,0.01106490,0.00048696,-0.00196306,0.00309950,0.00929680,-0.01448714,
 0.05965656,-0.08594513,-0.00252877,0.00370985,-0.00044628,0.08361552,0
 .11812898,-0.11430474,0.00961481,0.01019222,0.00090229,0.00846279,0.00
 137888,0.00439707,-0.00176429,-0.00031490,0.00067436,-0.00093493,0.001
 00716,0.00245863,-0.05074997,-0.21547104,0.22893536,0.00002438,-0.0000
 5780,-0.00009613,0.00001198,-0.00000155,0.00001122,-0.00002683,-0.0000
 0890,-0.00003646,-0.00011883,0.00012413,0.00020737,0.00000406,-0.00001
 376,-0.00001970,0.00064326,-0.00007186,0.00029183,-0.00004511,0.000022
 69,-0.00003747,0.00096923,0.00195594,-0.00045353,-0.00042435,-0.000114
 98,-0.00013552,-0.00667917,-0.00140210,0.00047601,0.00066819,0.0003481
 1,-0.00024617,-0.01752427,0.00478705,-0.00156358,0.00118503,-0.0002720
 3,0.00009968,0.00079371,-0.00329144,0.00093389,-0.00089638,0.00019556,
 0.00013233,-0.00022693,0.00003937,0.00007523,-0.32986119,0.03741451,-0
 .01372106,0.35150324,0.00001068,0.00002301,-0.00001392,0.00000291,0.00
 000782,-0.00000485,-0.00001109,-0.00004312,0.00002706,0.00000547,0.000
 12289,-0.00012778,-0.00001147,-0.00000995,0.00002370,0.00025467,-0.000
 33028,-0.00015650,0.00006576,0.00010729,-0.00006570,0.00020049,-0.0051
 6802,0.00244721,0.00138562,0.00019860,0.00086417,0.02732500,0.00068804
 ,0.00054388,-0.00060683,0.00087861,-0.00060311,-0.02494451,0.00741270,
 -0.00076668,0.00014836,-0.00043571,-0.00315126,-0.00082737,-0.00052141
 ,0.00595763,-0.00037920,-0.00005309,0.00010084,-0.00141925,0.00006602,
 -0.00007432,0.03845372,-0.06109334,0.00973899,-0.03965295,0.05814995,-
 0.00000113,-0.00004971,-0.00003307,0.00000979,0.00001071,-0.00000433,-
 0.00001013,0.00000240,-0.00000799,-0.00011410,-0.00002002,-0.00000459,
 -0.00001319,0.00001385,0.00001131,0.00081186,0.00024444,-0.00044928,0.
 00006078,-0.00014716,0.00011895,0.00005025,0.00232984,0.00045712,-0.00
 064759,0.00009609,-0.00013528,-0.01335232,0.00156455,0.00091597,0.0004
 7583,-0.00040428,-0.00042628,0.01256042,-0.00159715,0.00413592,-0.0002
 8257,-0.00324298,-0.00557995,0.00126917,0.00707436,0.00914497,0.002019
 25,-0.00050916,0.00014700,-0.00244172,0.00013475,-0.00029682,-0.014476
 67,0.00923884,-0.03970360,0.01408207,-0.01473937,0.03170997\\0.0000079
 6,-0.00000752,-0.00001118,0.00000546,0.00000011,-0.00000934,0.00000727
 ,-0.00000498,0.00000183,-0.00000163,0.00000336,0.00001661,0.00000025,-
 0.00000305,-0.00000455,-0.00001887,-0.00002255,-0.00000020,0.00001908,
 -0.00000299,0.00000405,0.00000327,0.00003115,-0.00001739,-0.00000220,-
 0.00000486,-0.00000318,0.00001321,0.00001507,-0.00000096,0.00000291,-0
 .00000412,0.00000186,-0.00000387,0.00000347,0.00001164,-0.00001175,-0.
 00000287,0.00000734,-0.00004983,0.00001189,-0.00001209,0.00000598,0.00
 000075,0.00000761,-0.00000197,0.00000643,-0.00000841,0.00003119,-0.000
 02225,0.00000752,-0.00000647,0.00000296,0.00000885\\\@


 GETTING A SIMPLE ANSWER FROM A PROFESSOR IS LIKE
 GETTING A THIMBLE OF WATER FROM A FIRE HYDRANT.
     -- PROF. LEN SHAPIRO, NDSU
 Job cpu time:  0 days  0 hours  7 minutes 59.4 seconds.
 File lengths (MBytes):  RWF=     49 Int=      0 D2E=      0 Chk=      3 Scr=      1
 Normal termination of Gaussian 09 at Tue Mar  2 16:29:26 2021.
