 Entering Gaussian System, Link 0=g09
 Input=oct03.com
 Output=oct03.log
 Initial command:
 /home/student/g09/l1.exe /home/student/singh/other/Gau-23003.inp -scrdir=/home/student/singh/other/
 Entering Link 1 = /home/student/g09/l1.exe PID=     23005.
  
 Copyright (c) 1988,1990,1992,1993,1995,1998,2003,2009,2011,
            Gaussian, Inc.  All Rights Reserved.
  
 This is part of the Gaussian(R) 09 program.  It is based on
 the Gaussian(R) 03 system (copyright 2003, Gaussian, Inc.),
 the Gaussian(R) 98 system (copyright 1998, Gaussian, Inc.),
 the Gaussian(R) 94 system (copyright 1995, Gaussian, Inc.),
 the Gaussian 92(TM) system (copyright 1992, Gaussian, Inc.),
 the Gaussian 90(TM) system (copyright 1990, Gaussian, Inc.),
 the Gaussian 88(TM) system (copyright 1988, Gaussian, Inc.),
 the Gaussian 86(TM) system (copyright 1986, Carnegie Mellon
 University), and the Gaussian 82(TM) system (copyright 1983,
 Carnegie Mellon University). Gaussian is a federally registered
 trademark of Gaussian, Inc.
  
 This software contains proprietary and confidential information,
 including trade secrets, belonging to Gaussian, Inc.
  
 This software is provided under written license and may be
 used, copied, transmitted, or stored only in accord with that
 written license.
  
 The following legend is applicable only to US Government
 contracts under FAR:
  
                    RESTRICTED RIGHTS LEGEND
  
 Use, reproduction and disclosure by the US Government is
 subject to restrictions as set forth in subparagraphs (a)
 and (c) of the Commercial Computer Software - Restricted
 Rights clause in FAR 52.227-19.
  
 Gaussian, Inc.
 340 Quinnipiac St., Bldg. 40, Wallingford CT 06492
  
  
 ---------------------------------------------------------------
 Warning -- This program may not be used in any manner that
 competes with the business of Gaussian, Inc. or will provide
 assistance to any competitor of Gaussian, Inc.  The licensee
 of this program is prohibited from giving any competitor of
 Gaussian, Inc. access to this program.  By using this program,
 the user acknowledges that Gaussian, Inc. is engaged in the
 business of creating and licensing software in the field of
 computational chemistry and represents and warrants to the
 licensee that it is not a competitor of Gaussian, Inc. and that
 it will not use this program in any manner prohibited above.
 ---------------------------------------------------------------
  

 Cite this work as:
 Gaussian 09, Revision C.01,
 M. J. Frisch, G. W. Trucks, H. B. Schlegel, G. E. Scuseria, 
 M. A. Robb, J. R. Cheeseman, G. Scalmani, V. Barone, B. Mennucci, 
 G. A. Petersson, H. Nakatsuji, M. Caricato, X. Li, H. P. Hratchian, 
 A. F. Izmaylov, J. Bloino, G. Zheng, J. L. Sonnenberg, M. Hada, 
 M. Ehara, K. Toyota, R. Fukuda, J. Hasegawa, M. Ishida, T. Nakajima, 
 Y. Honda, O. Kitao, H. Nakai, T. Vreven, J. A. Montgomery, Jr., 
 J. E. Peralta, F. Ogliaro, M. Bearpark, J. J. Heyd, E. Brothers, 
 K. N. Kudin, V. N. Staroverov, T. Keith, R. Kobayashi, J. Normand, 
 K. Raghavachari, A. Rendell, J. C. Burant, S. S. Iyengar, J. Tomasi, 
 M. Cossi, N. Rega, J. M. Millam, M. Klene, J. E. Knox, J. B. Cross, 
 V. Bakken, C. Adamo, J. Jaramillo, R. Gomperts, R. E. Stratmann, 
 O. Yazyev, A. J. Austin, R. Cammi, C. Pomelli, J. W. Ochterski, 
 R. L. Martin, K. Morokuma, V. G. Zakrzewski, G. A. Voth, 
 P. Salvador, J. J. Dannenberg, S. Dapprich, A. D. Daniels, 
 O. Farkas, J. B. Foresman, J. V. Ortiz, J. Cioslowski, 
 and D. J. Fox, Gaussian, Inc., Wallingford CT, 2010.
 
 ******************************************
 Gaussian 09:  EM64L-G09RevC.01 23-Sep-2011
                 2-Mar-2021 
 ******************************************
 %chk=oct03.chk
 -----------------------------------------
 # opt freq b3lyp/6-31g* geom=connectivity
 -----------------------------------------
 1/14=-1,18=20,19=15,26=3,38=1,57=2/1,3;
 2/9=110,12=2,17=6,18=5,40=1/2;
 3/5=1,6=6,7=1,11=2,16=1,25=1,30=1,71=1,74=-5/1,2,3;
 4//1;
 5/5=2,38=5/2;
 6/7=2,8=2,9=2,10=2,28=1/1;
 7//1,2,3,16;
 1/14=-1,18=20,19=15/3(2);
 2/9=110/2;
 99//99;
 2/9=110/2;
 3/5=1,6=6,7=1,11=2,16=1,25=1,30=1,71=1,74=-5/1,2,3;
 4/5=5,16=3/1;
 5/5=2,38=5/2;
 7//1,2,3,16;
 1/14=-1,18=20,19=15/3(-5);
 2/9=110/2;
 6/7=2,8=2,9=2,10=2,19=2,28=1/1;
 99/9=1/99;
 -------------------
 Title Card Required
 -------------------
 Charge =  0 Multiplicity = 1
 Symbolic Z-Matrix:
 C                    -5.56344   3.43609  -0.63311 
 H                    -5.85107   2.51335  -1.09215 
 H                    -5.82086   4.36533  -1.09695 
 C                    -4.87423   3.4319    0.53374 
 H                    -4.58659   4.35464   0.99277 
 C                    -4.50374   2.09448   1.20132 
 H                    -4.79137   1.17174   0.74228 
 C                    -3.81466   2.08224   2.36819 
 H                    -3.55724   1.153     2.83203 
 C                    -3.40068   3.4103    3.02886 
 H                    -2.85662   3.40063   3.95017 
 C                    -3.7231    4.59119   2.44739 
 H                    -4.26704   4.60721   1.5261 
 C                    -3.30518   5.91459   3.11488 
 H                    -2.76123   5.89857   4.03617 
 C                    -3.62396   7.09941   2.53943 
 H                    -4.16776   7.12179   1.61819 
 H                    -3.33086   8.01565   3.00792 
 

 GradGradGradGradGradGradGradGradGradGradGradGradGradGradGradGradGradGrad
 Berny optimization.
 Initialization pass.
                           ----------------------------
                           !    Initial Parameters    !
                           ! (Angstroms and Degrees)  !
 --------------------------                            --------------------------
 ! Name  Definition              Value          Derivative Info.                !
 --------------------------------------------------------------------------------
 ! R1    R(1,2)                  1.07           estimate D2E/DX2                !
 ! R2    R(1,3)                  1.07           estimate D2E/DX2                !
 ! R3    R(1,4)                  1.3552         estimate D2E/DX2                !
 ! R4    R(4,5)                  1.07           estimate D2E/DX2                !
 ! R5    R(4,6)                  1.54           estimate D2E/DX2                !
 ! R6    R(5,13)                 0.6711         estimate D2E/DX2                !
 ! R7    R(6,7)                  1.07           estimate D2E/DX2                !
 ! R8    R(6,8)                  1.3552         estimate D2E/DX2                !
 ! R9    R(8,9)                  1.07           estimate D2E/DX2                !
 ! R10   R(8,10)                 1.54           estimate D2E/DX2                !
 ! R11   R(10,11)                1.07           estimate D2E/DX2                !
 ! R12   R(10,12)                1.3552         estimate D2E/DX2                !
 ! R13   R(12,13)                1.07           estimate D2E/DX2                !
 ! R14   R(12,14)                1.54           estimate D2E/DX2                !
 ! R15   R(14,15)                1.07           estimate D2E/DX2                !
 ! R16   R(14,16)                1.3552         estimate D2E/DX2                !
 ! R17   R(16,17)                1.07           estimate D2E/DX2                !
 ! R18   R(16,18)                1.07           estimate D2E/DX2                !
 ! A1    A(2,1,3)              119.8865         estimate D2E/DX2                !
 ! A2    A(2,1,4)              120.2269         estimate D2E/DX2                !
 ! A3    A(3,1,4)              119.8865         estimate D2E/DX2                !
 ! A4    A(1,4,5)              120.2269         estimate D2E/DX2                !
 ! A5    A(1,4,6)              119.8865         estimate D2E/DX2                !
 ! A6    A(5,4,6)              119.8865         estimate D2E/DX2                !
 ! A7    A(4,5,13)             142.5161         estimate D2E/DX2                !
 ! A8    A(4,6,7)              119.8865         estimate D2E/DX2                !
 ! A9    A(4,6,8)              120.2269         estimate D2E/DX2                !
 ! A10   A(7,6,8)              119.8865         estimate D2E/DX2                !
 ! A11   A(6,8,9)              120.2269         estimate D2E/DX2                !
 ! A12   A(6,8,10)             119.8865         estimate D2E/DX2                !
 ! A13   A(9,8,10)             119.8865         estimate D2E/DX2                !
 ! A14   A(8,10,11)            119.8865         estimate D2E/DX2                !
 ! A15   A(8,10,12)            120.2269         estimate D2E/DX2                !
 ! A16   A(11,10,12)           119.8865         estimate D2E/DX2                !
 ! A17   A(10,12,13)           120.2269         estimate D2E/DX2                !
 ! A18   A(10,12,14)           119.8865         estimate D2E/DX2                !
 ! A19   A(13,12,14)           119.8865         estimate D2E/DX2                !
 ! A20   A(5,13,12)            157.03           estimate D2E/DX2                !
 ! A21   A(12,14,15)           119.8865         estimate D2E/DX2                !
 ! A22   A(12,14,16)           120.2269         estimate D2E/DX2                !
 ! A23   A(15,14,16)           119.8865         estimate D2E/DX2                !
 ! A24   A(14,16,17)           120.2269         estimate D2E/DX2                !
 ! A25   A(14,16,18)           119.8865         estimate D2E/DX2                !
 ! A26   A(17,16,18)           119.8865         estimate D2E/DX2                !
 ! D1    D(2,1,4,5)            180.0            estimate D2E/DX2                !
 ! D2    D(2,1,4,6)              0.0            estimate D2E/DX2                !
 ! D3    D(3,1,4,5)              0.0            estimate D2E/DX2                !
 ! D4    D(3,1,4,6)            180.0            estimate D2E/DX2                !
 ! D5    D(1,4,5,13)           180.0            estimate D2E/DX2                !
 ! D6    D(6,4,5,13)             0.0            estimate D2E/DX2                !
 ! D7    D(1,4,6,7)              0.0            estimate D2E/DX2                !
 ! D8    D(1,4,6,8)            180.0            estimate D2E/DX2                !
 ! D9    D(5,4,6,7)            180.0            estimate D2E/DX2                !
 ! D10   D(5,4,6,8)              0.0            estimate D2E/DX2                !
 ! D11   D(4,5,13,12)            0.0            estimate D2E/DX2                !
 ! D12   D(4,6,8,9)            180.0            estimate D2E/DX2                !
 ! D13   D(4,6,8,10)             0.0            estimate D2E/DX2                !
 ! D14   D(7,6,8,9)              0.0            estimate D2E/DX2                !
 ! D15   D(7,6,8,10)           180.0            estimate D2E/DX2                !
 ! D16   D(6,8,10,11)          180.0            estimate D2E/DX2                !
 ! D17   D(6,8,10,12)            0.0            estimate D2E/DX2                !
 ! D18   D(9,8,10,11)            0.0            estimate D2E/DX2                !
 ! D19   D(9,8,10,12)          180.0            estimate D2E/DX2                !
 ! D20   D(8,10,12,13)           0.0            estimate D2E/DX2                !
 ! D21   D(8,10,12,14)         180.0            estimate D2E/DX2                !
 ! D22   D(11,10,12,13)        180.0            estimate D2E/DX2                !
 ! D23   D(11,10,12,14)          0.0            estimate D2E/DX2                !
 ! D24   D(10,12,13,5)           0.0            estimate D2E/DX2                !
 ! D25   D(14,12,13,5)         180.0            estimate D2E/DX2                !
 ! D26   D(10,12,14,15)          0.0            estimate D2E/DX2                !
 ! D27   D(10,12,14,16)        180.0            estimate D2E/DX2                !
 ! D28   D(13,12,14,15)        180.0            estimate D2E/DX2                !
 ! D29   D(13,12,14,16)          0.0            estimate D2E/DX2                !
 ! D30   D(12,14,16,17)          0.0            estimate D2E/DX2                !
 ! D31   D(12,14,16,18)        180.0            estimate D2E/DX2                !
 ! D32   D(15,14,16,17)        180.0            estimate D2E/DX2                !
 ! D33   D(15,14,16,18)          0.0            estimate D2E/DX2                !
 --------------------------------------------------------------------------------
 Trust Radius=3.00D-01 FncErr=1.00D-07 GrdErr=1.00D-06
 Number of steps in this run=     87 maximum allowed number of steps=    108.
 GradGradGradGradGradGradGradGradGradGradGradGradGradGradGradGradGradGrad

                          Input orientation:                          
 ---------------------------------------------------------------------
 Center     Atomic      Atomic             Coordinates (Angstroms)
 Number     Number       Type             X           Y           Z
 ---------------------------------------------------------------------
      1          6           0       -5.563438    3.436087   -0.633113
      2          1           0       -5.851071    2.513346   -1.092152
      3          1           0       -5.820856    4.365327   -1.096955
      4          6           0       -4.874227    3.431895    0.533736
      5          1           0       -4.586594    4.354636    0.992774
      6          6           0       -4.503738    2.094484    1.201321
      7          1           0       -4.791371    1.171743    0.742283
      8          6           0       -3.814658    2.082242    2.368191
      9          1           0       -3.557240    1.153002    2.832033
     10          6           0       -3.400682    3.410299    3.028863
     11          1           0       -2.856618    3.400633    3.950167
     12          6           0       -3.723097    4.591190    2.447389
     13          1           0       -4.267038    4.607212    1.526101
     14          6           0       -3.305176    5.914594    3.114880
     15          1           0       -2.761235    5.898572    4.036168
     16          6           0       -3.623964    7.099412    2.539427
     17          1           0       -4.167763    7.121790    1.618187
     18          1           0       -3.330859    8.015654    3.007924
 ---------------------------------------------------------------------
                    Distance matrix (angstroms):
                    1          2          3          4          5
     1  C    0.000000
     2  H    1.070000   0.000000
     3  H    1.070000   1.852234   0.000000
     4  C    1.355200   2.107479   2.103938   0.000000
     5  H    2.107479   3.055514   2.427032   1.070000   0.000000
     6  C    2.507591   2.692725   3.489068   1.540000   2.271265
     7  H    2.759539   2.507591   3.826436   2.271265   3.199295
     8  C    3.728131   4.038168   4.609181   2.511867   2.766123
     9  H    4.609181   4.744620   5.556972   3.494278   3.833133
    10  C    4.253029   4.877673   4.877673   2.897837   2.538468
    11  H    5.323025   5.931189   5.932182   3.967836   3.556559
    12  C    3.769697   4.623209   4.124801   2.516174   1.708066
    13  H    2.777480   3.707922   3.058313   1.653734   0.671080
    14  C    5.028936   5.979062   5.144748   3.909990   2.928964
    15  H    5.976484   6.877972   6.169366   4.776637   3.870132
    16  C    5.219820   6.259423   5.052210   4.363099   3.294326
    17  H    4.538796   5.605107   4.207470   3.910300   2.867699
    18  H    6.262108   7.310095   6.031170   5.432719   4.363571
                    6          7          8          9         10
     6  C    0.000000
     7  H    1.070000   0.000000
     8  C    1.355200   2.103938   0.000000
     9  H    2.107479   2.427032   1.070000   0.000000
    10  C    2.507591   3.489068   1.540000   2.271265   0.000000
    11  H    3.460518   4.359099   2.271265   2.606327   1.070000
    12  C    2.897521   3.967520   2.511867   3.463611   1.355200
    13  H    2.544663   3.562547   2.699859   3.760431   2.107479
    14  C    4.437510   5.507506   3.937517   4.776641   2.507591
    15  H    5.054083   6.108522   4.296070   4.960242   2.759539
    16  C    5.254887   6.303160   5.023712   5.953979   3.728131
    17  H    5.055735   6.046416   5.107273   6.121486   4.043956
    18  H    6.300771   7.355634   5.987379   6.868638   4.605932
                   11         12         13         14         15
    11  H    0.000000
    12  C    2.103938   0.000000
    13  H    3.053066   1.070000   0.000000
    14  C    2.686802   1.540000   2.271265   0.000000
    15  H    2.501238   2.271265   3.199295   1.070000   0.000000
    16  C    4.032366   2.511867   2.766123   1.355200   2.103938
    17  H    4.583038   2.699859   2.518221   2.107479   3.053066
    18  H    4.734041   3.492135   3.832716   2.103938   2.421527
                   16         17         18
    16  C    0.000000
    17  H    1.070000   0.000000
    18  H    1.070000   1.852234   0.000000
 Stoichiometry    C8H10
 Framework group  CS[SG(C8H10)]
 Deg. of freedom    33
 Full point group                 CS      NOp   2
 Largest Abelian subgroup         CS      NOp   2
 Largest concise Abelian subgroup C1      NOp   1
                         Standard orientation:                         
 ---------------------------------------------------------------------
 Center     Atomic      Atomic             Coordinates (Angstroms)
 Number     Number       Type             X           Y           Z
 ---------------------------------------------------------------------
      1          6           0        2.770737    0.828937    0.000000
      2          1           0        3.691154    0.283287    0.000000
      3          1           0        2.785195    1.898840    0.000000
      4          6           0        1.586743    0.169601    0.000000
      5          1           0        0.666327    0.715251    0.000000
      6          6           0        1.565935   -1.370259    0.000000
      7          1           0        2.486351   -1.915909    0.000000
      8          6           0        0.385879   -2.036618    0.000000
      9          1           0        0.371421   -3.106520    0.000000
     10          6           0       -0.938832   -1.251290    0.000000
     11          1           0       -1.870547   -1.777415    0.000000
     12          6           0       -0.928572    0.103871    0.000000
     13          1           0        0.000000    0.635523    0.000000
     14          6           0       -2.257926    0.881315    0.000000
     15          1           0       -3.186499    0.349663    0.000000
     16          6           0       -2.255718    2.236513    0.000000
     17          1           0       -1.330321    2.773672    0.000000
     18          1           0       -3.182553    2.771188    0.000000
 ---------------------------------------------------------------------
 Rotational constants (GHZ):      3.0363552      1.2947102      0.9076751
 Standard basis: 6-31G(d) (6D, 7F)
 There are   108 symmetry adapted basis functions of A'  symmetry.
 There are    32 symmetry adapted basis functions of A"  symmetry.
 Integral buffers will be    131072 words long.
 Raffenetti 2 integral format.
 Two-electron integral symmetry is turned on.
   140 basis functions,   264 primitive gaussians,   140 cartesian basis functions
    29 alpha electrons       29 beta electrons
       nuclear repulsion energy       318.4687968819 Hartrees.
 NAtoms=   18 NActive=   18 NUniq=   18 SFac= 1.00D+00 NAtFMM=   60 NAOKFM=F Big=F
 One-electron integrals computed using PRISM.
 NBasis=   140 RedAO= T  NBF=   108    32
 NBsUse=   140 1.00D-06 NBFU=   108    32
 Harris functional with IExCor=  402 diagonalized for initial guess.
 ExpMin= 1.61D-01 ExpMax= 3.05D+03 ExpMxC= 4.57D+02 IAcc=1 IRadAn=         1 AccDes= 0.00D+00
 HarFok:  IExCor=  402 AccDes= 0.00D+00 IRadAn=         1 IDoV= 1
 ScaDFX=  1.000000  1.000000  1.000000  1.000000
 FoFCou: FMM=F IPFlag=           0 FMFlag=      100000 FMFlg1=           0
         NFxFlg=           0 DoJE=T BraDBF=F KetDBF=T FulRan=T
         Omega=  0.000000  0.000000  1.000000  0.000000  0.000000 ICntrl=     500 IOpCl=  0
         NMat0=    1 NMatS0=    1 NMatT0=    0 NMatD0=    1 NMtDS0=    0 NMtDT0=    0
         I1Cent=           4 NGrid=           0.
 Petite list used in FoFCou.
 Initial guess orbital symmetries:
       Occupied  (A') (A') (A') (A') (A') (A') (A') (A') (A') (A')
                 (A') (A') (A') (A') (A') (A') (A') (A') (A') (A')
                 (A') (A') (A') (A') (A") (A") (A') (A") (A")
       Virtual   (A") (A") (A") (A") (A') (A') (A') (A') (A') (A')
                 (A') (A') (A') (A') (A') (A') (A') (A') (A') (A')
                 (A') (A') (A") (A') (A") (A') (A') (A") (A') (A")
                 (A") (A') (A') (A') (A') (A") (A") (A") (A') (A')
                 (A') (A') (A') (A') (A') (A') (A') (A') (A') (A')
                 (A') (A') (A') (A') (A') (A') (A') (A") (A') (A')
                 (A") (A') (A") (A") (A") (A') (A") (A') (A") (A')
                 (A") (A') (A") (A') (A') (A') (A') (A') (A") (A')
                 (A') (A") (A') (A') (A") (A') (A') (A') (A") (A')
                 (A") (A") (A') (A") (A') (A') (A') (A') (A') (A')
                 (A') (A') (A') (A') (A') (A') (A') (A') (A') (A')
                 (A')
 The electronic state of the initial guess is 1-A'.
 Requested convergence on RMS density matrix=1.00D-08 within 128 cycles.
 Requested convergence on MAX density matrix=1.00D-06.
 Requested convergence on             energy=1.00D-06.
 No special actions if energy rises.
 Integral accuracy reduced to 1.0D-05 until final iterations.
 Initial convergence to 1.0D-05 achieved.  Increase integral accuracy.
 SCF Done:  E(RB3LYP) =  -310.617310006     A.U. after   14 cycles
             Convg  =    0.8692D-08             -V/T =  2.0086

 **********************************************************************

            Population analysis using the SCF density.

 **********************************************************************

 Orbital symmetries:
       Occupied  (A') (A') (A') (A') (A') (A') (A') (A') (A') (A')
                 (A') (A') (A') (A') (A') (A') (A') (A') (A') (A')
                 (A') (A') (A') (A') (A") (A") (A') (A") (A")
       Virtual   (A") (A") (A") (A') (A") (A') (A') (A') (A') (A')
                 (A') (A') (A') (A') (A') (A') (A') (A') (A') (A')
                 (A') (A') (A") (A') (A') (A") (A") (A') (A") (A')
                 (A") (A') (A') (A") (A') (A') (A") (A") (A') (A')
                 (A') (A') (A') (A') (A') (A') (A') (A') (A') (A')
                 (A') (A') (A') (A') (A') (A') (A') (A') (A') (A")
                 (A") (A') (A") (A") (A') (A") (A") (A') (A") (A')
                 (A") (A') (A") (A') (A') (A') (A') (A') (A") (A')
                 (A') (A") (A') (A') (A") (A') (A') (A') (A") (A')
                 (A") (A") (A') (A") (A') (A') (A') (A') (A') (A')
                 (A') (A') (A') (A') (A') (A') (A') (A') (A') (A')
                 (A')
 The electronic state is 1-A'.
 Alpha  occ. eigenvalues --  -10.19583 -10.19472 -10.19435 -10.19239 -10.18725
 Alpha  occ. eigenvalues --  -10.18539 -10.17761 -10.17490  -0.84017  -0.77623
 Alpha  occ. eigenvalues --   -0.75346  -0.72308  -0.67069  -0.59885  -0.56255
 Alpha  occ. eigenvalues --   -0.53337  -0.48244  -0.46554  -0.44763  -0.43957
 Alpha  occ. eigenvalues --   -0.40885  -0.37770  -0.36574  -0.35064  -0.33750
 Alpha  occ. eigenvalues --   -0.29592  -0.27166  -0.25410  -0.20403
 Alpha virt. eigenvalues --   -0.05273   0.01054   0.07296   0.08454   0.09606
 Alpha virt. eigenvalues --    0.11227   0.13341   0.14778   0.16186   0.16783
 Alpha virt. eigenvalues --    0.18474   0.18683   0.20380   0.26596   0.30142
 Alpha virt. eigenvalues --    0.31717   0.34264   0.35057   0.36764   0.41932
 Alpha virt. eigenvalues --    0.46800   0.48752   0.51246   0.51865   0.55067
 Alpha virt. eigenvalues --    0.55086   0.57551   0.58000   0.60813   0.60841
 Alpha virt. eigenvalues --    0.61249   0.62633   0.64696   0.67177   0.67696
 Alpha virt. eigenvalues --    0.68312   0.71501   0.75041   0.77966   0.84360
 Alpha virt. eigenvalues --    0.85472   0.85854   0.86825   0.88438   0.90380
 Alpha virt. eigenvalues --    0.91189   0.92671   0.94412   0.95838   0.97113
 Alpha virt. eigenvalues --    0.99674   1.05306   1.06666   1.09188   1.14615
 Alpha virt. eigenvalues --    1.19195   1.24045   1.28833   1.31327   1.31895
 Alpha virt. eigenvalues --    1.36306   1.39857   1.41206   1.46118   1.46708
 Alpha virt. eigenvalues --    1.47809   1.51925   1.52179   1.58760   1.60166
 Alpha virt. eigenvalues --    1.69898   1.70428   1.72308   1.78038   1.89049
 Alpha virt. eigenvalues --    1.93011   1.96284   1.98638   2.00108   2.01764
 Alpha virt. eigenvalues --    2.07982   2.10585   2.13918   2.15794   2.18627
 Alpha virt. eigenvalues --    2.25493   2.26042   2.33628   2.33737   2.34589
 Alpha virt. eigenvalues --    2.38878   2.40767   2.47783   2.49366   2.59846
 Alpha virt. eigenvalues --    2.64589   2.66579   2.71832   2.81868   2.86630
 Alpha virt. eigenvalues --    2.90332   3.05228   3.12111   4.04984   4.09371
 Alpha virt. eigenvalues --    4.10612   4.16444   4.20138   4.32370   4.46348
 Alpha virt. eigenvalues --    4.53697
          Condensed to atoms (all electrons):
              1          2          3          4          5          6
     1  C    5.150008   0.358975   0.358007   0.555585   0.017021  -0.044755
     2  H    0.358975   0.562734  -0.041062  -0.027779   0.003811  -0.009320
     3  H    0.358007  -0.041062   0.565445  -0.021913  -0.015258   0.004809
     4  C    0.555585  -0.027779  -0.021913   4.944082   0.452014   0.411075
     5  H    0.017021   0.003811  -0.015258   0.452014   0.869865  -0.096226
     6  C   -0.044755  -0.009320   0.004809   0.411075  -0.096226   4.978312
     7  H   -0.007339   0.005846  -0.000042  -0.041362   0.005458   0.359042
     8  C    0.002701   0.000469  -0.000193  -0.015305   0.003021   0.616081
     9  H   -0.000157  -0.000012   0.000003   0.005370  -0.000328  -0.046906
    10  C    0.002090  -0.000037  -0.000057  -0.017071   0.038207  -0.041175
    11  H    0.000012  -0.000001   0.000000  -0.001030  -0.002090   0.004630
    12  C    0.008768  -0.000268   0.000376  -0.077981  -0.132216  -0.029449
    13  H   -0.017654  -0.000102   0.003629  -0.174839  -0.282274   0.036044
    14  C   -0.000391   0.000004   0.000011   0.004871   0.004047   0.000930
    15  H    0.000002   0.000000   0.000000  -0.000132  -0.000813  -0.000015
    16  C    0.000026   0.000000  -0.000010   0.000027   0.004737  -0.000007
    17  H    0.000030  -0.000001   0.000036  -0.000492  -0.000762   0.000004
    18  H    0.000000   0.000000   0.000000   0.000001  -0.000107   0.000000
              7          8          9         10         11         12
     1  C   -0.007339   0.002701  -0.000157   0.002090   0.000012   0.008768
     2  H    0.005846   0.000469  -0.000012  -0.000037  -0.000001  -0.000268
     3  H   -0.000042  -0.000193   0.000003  -0.000057   0.000000   0.000376
     4  C   -0.041362  -0.015305   0.005370  -0.017071  -0.001030  -0.077981
     5  H    0.005458   0.003021  -0.000328   0.038207  -0.002090  -0.132216
     6  C    0.359042   0.616081  -0.046906  -0.041175   0.004630  -0.029449
     7  H    0.589977  -0.042614  -0.006975   0.004391  -0.000209  -0.000606
     8  C   -0.042614   4.870392   0.359487   0.410448  -0.043376  -0.013724
     9  H   -0.006975   0.359487   0.599185  -0.042548  -0.003204   0.005488
    10  C    0.004391   0.410448  -0.042548   5.020263   0.352875   0.629004
    11  H   -0.000209  -0.043376  -0.003204   0.352875   0.604591  -0.048031
    12  C   -0.000606  -0.013724   0.005488   0.629004  -0.048031   5.061113
    13  H   -0.001291  -0.009456   0.000037  -0.155564   0.011446   0.349697
    14  C    0.000010   0.003462  -0.000084  -0.024970  -0.013579   0.373676
    15  H    0.000000   0.000098   0.000004  -0.007802   0.005863  -0.042595
    16  C    0.000000  -0.000194   0.000001   0.005304   0.000217  -0.015194
    17  H    0.000000   0.000000   0.000000   0.000407   0.000011  -0.013235
    18  H    0.000000   0.000002   0.000000  -0.000201  -0.000009   0.003280
             13         14         15         16         17         18
     1  C   -0.017654  -0.000391   0.000002   0.000026   0.000030   0.000000
     2  H   -0.000102   0.000004   0.000000   0.000000  -0.000001   0.000000
     3  H    0.003629   0.000011   0.000000  -0.000010   0.000036   0.000000
     4  C   -0.174839   0.004871  -0.000132   0.000027  -0.000492   0.000001
     5  H   -0.282274   0.004047  -0.000813   0.004737  -0.000762  -0.000107
     6  C    0.036044   0.000930  -0.000015  -0.000007   0.000004   0.000000
     7  H   -0.001291   0.000010   0.000000   0.000000   0.000000   0.000000
     8  C   -0.009456   0.003462   0.000098  -0.000194   0.000000   0.000002
     9  H    0.000037  -0.000084   0.000004   0.000001   0.000000   0.000000
    10  C   -0.155564  -0.024970  -0.007802   0.005304   0.000407  -0.000201
    11  H    0.011446  -0.013579   0.005863   0.000217   0.000011  -0.000009
    12  C    0.349697   0.373676  -0.042595  -0.015194  -0.013235   0.003280
    13  H    1.173013  -0.023954   0.006778  -0.021321   0.005847   0.000508
    14  C   -0.023954   4.832615   0.360013   0.616149  -0.034672  -0.020454
    15  H    0.006778   0.360013   0.612227  -0.058990   0.005994  -0.006433
    16  C   -0.021321   0.616149  -0.058990   5.089394   0.369507   0.364815
    17  H    0.005847  -0.034672   0.005994   0.369507   0.573903  -0.041459
    18  H    0.000508  -0.020454  -0.006433   0.364815  -0.041459   0.557050
 Mulliken atomic charges:
              1
     1  C   -0.382928
     2  H    0.146744
     3  H    0.146219
     4  C    0.004879
     5  H    0.131895
     6  C   -0.143075
     7  H    0.135715
     8  C   -0.141301
     9  H    0.130638
    10  C   -0.173568
    11  H    0.131882
    12  C   -0.058102
    13  H    0.099456
    14  C   -0.077684
    15  H    0.125802
    16  C   -0.354460
    17  H    0.134883
    18  H    0.143008
 Sum of Mulliken atomic charges =   0.00000
 Mulliken charges with hydrogens summed into heavy atoms:
              1
     1  C   -0.089965
     4  C    0.136774
     6  C   -0.007361
     8  C   -0.010664
    10  C   -0.041686
    12  C    0.041353
    14  C    0.048118
    16  C   -0.076570
 Sum of Mulliken charges with hydrogens summed into heavy atoms =   0.00000
 Electronic spatial extent (au):  <R**2>=           1259.6827
 Charge=              0.0000 electrons
 Dipole moment (field-independent basis, Debye):
    X=              0.3272    Y=             -0.0539    Z=              0.0000  Tot=              0.3316
 Quadrupole moment (field-independent basis, Debye-Ang):
   XX=            -44.2120   YY=            -43.9389   ZZ=            -53.7288
   XY=              0.6629   XZ=              0.0000   YZ=              0.0000
 Traceless Quadrupole moment (field-independent basis, Debye-Ang):
   XX=              3.0812   YY=              3.3543   ZZ=             -6.4356
   XY=              0.6629   XZ=              0.0000   YZ=              0.0000
 Octapole moment (field-independent basis, Debye-Ang**2):
  XXX=             -0.1101  YYY=             -3.1528  ZZZ=              0.0000  XYY=              1.7832
  XXY=             -2.4878  XXZ=              0.0000  XZZ=              0.2908  YZZ=             -0.1387
  YYZ=              0.0000  XYZ=              0.0000
 Hexadecapole moment (field-independent basis, Debye-Ang**3):
 XXXX=           -957.8874 YYYY=           -596.2524 ZZZZ=            -56.0812 XXXY=            101.3799
 XXXZ=              0.0000 YYYX=            113.4556 YYYZ=              0.0000 ZZZX=              0.0000
 ZZZY=              0.0000 XXYY=           -258.9752 XXZZ=           -203.7893 YYZZ=           -128.1301
 XXYZ=              0.0000 YYXZ=              0.0000 ZZXY=             45.1825
 N-N= 3.184687968819D+02 E-N=-1.355415111246D+03  KE= 3.079823097512D+02
 Symmetry A'   KE= 2.995927099873D+02
 Symmetry A"   KE= 8.389599763847D+00
 Calling FoFJK, ICntrl=      2127 FMM=F ISym2X=1 I1Cent= 0 IOpClX= 0 NMat=1 NMatS=1 NMatT=0.
 ***** Axes restored to original set *****
 -------------------------------------------------------------------
 Center     Atomic                   Forces (Hartrees/Bohr)
 Number     Number              X              Y              Z
 -------------------------------------------------------------------
      1        6           0.016488960   -0.000394472    0.027925068
      2        1          -0.005971671   -0.008681818   -0.009846781
      3        1          -0.005048687    0.008167896   -0.008793381
      4        6          -0.042050574   -0.090199622   -0.068459729
      5        1          -0.112444017   -0.090923354   -0.187602611
      6        6           0.004757911    0.052113293    0.006479929
      7        1          -0.006067743   -0.007208940   -0.010053914
      8        6           0.003380372    0.046147565    0.004328215
      9        1           0.004201061   -0.008625046    0.007372299
     10        6          -0.023950098   -0.031116904   -0.039603549
     11        1           0.006308240   -0.003273784    0.010777741
     12        6           0.062395440    0.062747630    0.103729686
     13        1           0.112503580    0.102538996    0.187352508
     14        6          -0.026430427   -0.018623289   -0.044179803
     15        1           0.006792503   -0.003801764    0.011613472
     16        6           0.010004652   -0.025799198    0.017715707
     17        1          -0.005926485    0.004599472   -0.010171543
     18        1           0.001056982    0.012333339    0.001416685
 -------------------------------------------------------------------
 Cartesian Forces:  Max     0.187602611 RMS     0.054794058

 GradGradGradGradGradGradGradGradGradGradGradGradGradGradGradGradGradGrad
 Berny optimization.
 Internal  Forces:  Max     0.300068812 RMS     0.038689905
 Search for a local minimum.
 Step number   1 out of a maximum of   87
 All quantities printed in internal units (Hartrees-Bohrs-Radians)
 Mixed Optimization -- RFO/linear search
 Second derivative matrix not updated -- first step.
 ITU=  0
     Eigenvalues ---    0.00237   0.00374   0.00377   0.00922   0.01048
     Eigenvalues ---    0.01321   0.01357   0.01459   0.01460   0.01831
     Eigenvalues ---    0.02167   0.02681   0.02681   0.02681   0.02681
     Eigenvalues ---    0.16000   0.16000   0.16000   0.16000   0.16000
     Eigenvalues ---    0.16000   0.16000   0.16000   0.16000   0.16126
     Eigenvalues ---    0.18347   0.21476   0.22000   0.22000   0.22000
     Eigenvalues ---    0.27799   0.28281   0.28519   0.35993   0.36737
     Eigenvalues ---    0.37230   0.37230   0.37230   0.37230   0.37230
     Eigenvalues ---    0.37230   0.37230   0.37230   0.48611   0.51764
     Eigenvalues ---    0.53372   0.53930   0.53930
 RFO step:  Lambda=-1.85531370D-01 EMin= 2.36824152D-03
 Linear search not attempted -- first point.
 Maximum step size (   0.300) exceeded in Quadratic search.
    -- Step size scaled by   0.539
 Iteration  1 RMS(Cart)=  0.07809946 RMS(Int)=  0.00458669
 Iteration  2 RMS(Cart)=  0.00944053 RMS(Int)=  0.00015182
 Iteration  3 RMS(Cart)=  0.00002178 RMS(Int)=  0.00015068
 Iteration  4 RMS(Cart)=  0.00000001 RMS(Int)=  0.00015068
 ClnCor:  largest displacement from symmetrization is 3.28D-08 for atom    15.
 Variable       Old X    -DE/DX   Delta X   Delta X   Delta X     New X
                                 (Linear)    (Quad)   (Total)
    R1        2.02201   0.01332   0.00000   0.01288   0.01288   2.03488
    R2        2.02201   0.01212   0.00000   0.01172   0.01172   2.03372
    R3        2.56096  -0.01078   0.00000  -0.00802  -0.00802   2.55294
    R4        2.02201   0.05648   0.00000   0.05984   0.05956   2.08157
    R5        2.91018  -0.04274   0.00000  -0.04975  -0.04984   2.86033
    R6        1.26816   0.30007   0.00000   0.24080   0.24056   1.50871
    R7        2.02201   0.01216   0.00000   0.01176   0.01176   2.03376
    R8        2.56096   0.01852   0.00000   0.00926   0.00944   2.57039
    R9        2.02201   0.01170   0.00000   0.01131   0.01131   2.03332
   R10        2.91018  -0.01894   0.00000  -0.02790  -0.02763   2.88255
   R11        2.02201   0.01252   0.00000   0.01210   0.01210   2.03411
   R12        2.56096  -0.01046   0.00000  -0.00730  -0.00718   2.55378
   R13        2.02201   0.05450   0.00000   0.05855   0.05839   2.08039
   R14        2.91018  -0.04106   0.00000  -0.04704  -0.04704   2.86313
   R15        2.02201   0.01351   0.00000   0.01306   0.01306   2.03507
   R16        2.56096  -0.01276   0.00000  -0.00949  -0.00949   2.55146
   R17        2.02201   0.01187   0.00000   0.01147   0.01147   2.03348
   R18        2.02201   0.01147   0.00000   0.01109   0.01109   2.03310
    A1        2.09241  -0.00694   0.00000  -0.01083  -0.01083   2.08159
    A2        2.09836   0.00425   0.00000   0.00664   0.00664   2.10499
    A3        2.09241   0.00269   0.00000   0.00419   0.00419   2.09661
    A4        2.09836   0.02166   0.00000   0.03282   0.03299   2.13134
    A5        2.09241   0.02096   0.00000   0.02517   0.02534   2.11775
    A6        2.09241  -0.04262   0.00000  -0.05799  -0.05833   2.03409
    A7        2.48737  -0.00317   0.00000   0.01687   0.01630   2.50367
    A8        2.09241  -0.02347   0.00000  -0.02688  -0.02696   2.06546
    A9        2.09836   0.03385   0.00000   0.03331   0.03348   2.13184
   A10        2.09241  -0.01038   0.00000  -0.00644  -0.00652   2.08589
   A11        2.09836  -0.02373   0.00000  -0.02186  -0.02213   2.07623
   A12        2.09241   0.05371   0.00000   0.05350   0.05403   2.14645
   A13        2.09241  -0.02999   0.00000  -0.03164  -0.03190   2.06051
   A14        2.09241  -0.01395   0.00000  -0.01535  -0.01559   2.07682
   A15        2.09836   0.02152   0.00000   0.02073   0.02122   2.11958
   A16        2.09241  -0.00757   0.00000  -0.00538  -0.00563   2.08679
   A17        2.09836  -0.04450   0.00000  -0.05852  -0.05845   2.03990
   A18        2.09241   0.02447   0.00000   0.02896   0.02892   2.12134
   A19        2.09241   0.02003   0.00000   0.02956   0.02953   2.12194
   A20        2.74069  -0.01878   0.00000  -0.00789  -0.00825   2.73244
   A21        2.09241  -0.00853   0.00000  -0.01219  -0.01219   2.08023
   A22        2.09836   0.00979   0.00000   0.01302   0.01302   2.11137
   A23        2.09241  -0.00126   0.00000  -0.00083  -0.00083   2.09158
   A24        2.09836   0.00259   0.00000   0.00404   0.00404   2.10239
   A25        2.09241   0.00363   0.00000   0.00566   0.00566   2.09808
   A26        2.09241  -0.00621   0.00000  -0.00970  -0.00970   2.08271
    D1        3.14159   0.00000   0.00000   0.00000   0.00000   3.14159
    D2        0.00000   0.00000   0.00000   0.00000   0.00000   0.00000
    D3        0.00000   0.00000   0.00000   0.00000   0.00000   0.00000
    D4        3.14159   0.00000   0.00000   0.00000   0.00000  -3.14159
    D5        3.14159   0.00000   0.00000   0.00000   0.00000   3.14159
    D6        0.00000   0.00000   0.00000   0.00000   0.00000   0.00000
    D7        0.00000   0.00000   0.00000   0.00000   0.00000   0.00000
    D8        3.14159   0.00000   0.00000   0.00000   0.00000   3.14159
    D9        3.14159   0.00000   0.00000   0.00000   0.00000  -3.14159
   D10        0.00000   0.00000   0.00000   0.00000   0.00000   0.00000
   D11        0.00000   0.00000   0.00000   0.00000   0.00000   0.00000
   D12        3.14159   0.00000   0.00000   0.00000   0.00000   3.14159
   D13        0.00000   0.00000   0.00000   0.00000   0.00000   0.00000
   D14        0.00000   0.00000   0.00000   0.00000   0.00000   0.00000
   D15       -3.14159   0.00000   0.00000   0.00000   0.00000   3.14159
   D16        3.14159   0.00000   0.00000   0.00000   0.00000   3.14159
   D17        0.00000   0.00000   0.00000   0.00000   0.00000   0.00000
   D18        0.00000   0.00000   0.00000   0.00000   0.00000   0.00000
   D19       -3.14159   0.00000   0.00000   0.00000   0.00000   3.14159
   D20        0.00000   0.00000   0.00000   0.00000   0.00000   0.00000
   D21        3.14159   0.00000   0.00000   0.00000   0.00000   3.14159
   D22        3.14159   0.00000   0.00000   0.00000   0.00000   3.14159
   D23        0.00000   0.00000   0.00000   0.00000   0.00000   0.00000
   D24        0.00000   0.00000   0.00000   0.00000   0.00000   0.00000
   D25       -3.14159   0.00000   0.00000   0.00000   0.00000   3.14159
   D26        0.00000   0.00000   0.00000   0.00000   0.00000   0.00000
   D27        3.14159   0.00000   0.00000   0.00000   0.00000   3.14159
   D28       -3.14159   0.00000   0.00000   0.00000   0.00000  -3.14159
   D29        0.00000   0.00000   0.00000   0.00000   0.00000   0.00000
   D30        0.00000   0.00000   0.00000   0.00000   0.00000   0.00000
   D31       -3.14159   0.00000   0.00000   0.00000   0.00000   3.14159
   D32        3.14159   0.00000   0.00000   0.00000   0.00000   3.14159
   D33        0.00000   0.00000   0.00000   0.00000   0.00000   0.00000
         Item               Value     Threshold  Converged?
 Maximum Force            0.300069     0.000450     NO 
 RMS     Force            0.038690     0.000300     NO 
 Maximum Displacement     0.248206     0.001800     NO 
 RMS     Displacement     0.087204     0.001200     NO 
 Predicted change in Energy=-8.144704D-02
 GradGradGradGradGradGradGradGradGradGradGradGradGradGradGradGradGradGrad

                          Input orientation:                          
 ---------------------------------------------------------------------
 Center     Atomic      Atomic             Coordinates (Angstroms)
 Number     Number       Type             X           Y           Z
 ---------------------------------------------------------------------
      1          6           0       -5.611208    3.328305   -0.710724
      2          1           0       -5.884970    2.382000   -1.145569
      3          1           0       -5.891205    4.238426   -1.212210
      4          6           0       -4.923906    3.378222    0.451259
      5          1           0       -4.631172    4.332062    0.917994
      6          6           0       -4.516197    2.115542    1.179593
      7          1           0       -4.787424    1.167194    0.749101
      8          6           0       -3.824157    2.146657    2.350165
      9          1           0       -3.560591    1.217482    2.824412
     10          6           0       -3.399638    3.444713    3.029591
     11          1           0       -2.853430    3.394417    3.955752
     12          6           0       -3.694515    4.649898    2.494000
     13          1           0       -4.254445    4.649747    1.546133
     14          6           0       -3.273994    5.940611    3.166880
     15          1           0       -2.727331    5.895854    4.093645
     16          6           0       -3.574773    7.138562    2.621516
     17          1           0       -4.120579    7.194903    1.695852
     18          1           0       -3.270090    8.047520    3.109835
 ---------------------------------------------------------------------
                    Distance matrix (angstroms):
                    1          2          3          4          5
     1  C    0.000000
     2  H    1.076814   0.000000
     3  H    1.076200   1.857631   0.000000
     4  C    1.350955   2.113282   2.107783   0.000000
     5  H    2.149586   3.103714   2.476736   1.101520   0.000000
     6  C    2.498628   2.711258   3.481093   1.513624   2.234863
     7  H    2.734979   2.504023   3.807563   2.235169   3.173220
     8  C    3.736160   4.064787   4.619383   2.516356   2.734663
     9  H    4.599760   4.745480   5.554474   3.487016   3.805414
    10  C    4.346786   4.973750   4.983048   2.995933   2.600559
    11  H    5.420859   6.019858   6.053781   4.070455   3.642460
    12  C    3.961133   4.815383   4.327904   2.702102   1.860683
    13  H    2.946255   3.878988   3.233671   1.806573   0.798377
    14  C    5.227095   6.170747   5.378072   4.081990   3.080073
    15  H    6.163685   7.054588   6.396035   4.942711   4.019305
    16  C    5.456092   6.492520   5.336113   4.546464   3.448827
    17  H    4.792093   5.860954   4.509180   4.094069   3.010254
    18  H    6.507572   7.552760   6.329259   5.621876   4.523422
                    6          7          8          9         10
     6  C    0.000000
     7  H    1.076222   0.000000
     8  C    1.360193   2.109654   0.000000
     9  H    2.103597   2.411341   1.075985   0.000000
    10  C    2.536906   3.509086   1.525380   2.242446   0.000000
    11  H    3.479565   4.357002   2.253247   2.553244   1.076405
    12  C    2.970822   4.045782   2.510719   3.450882   1.351400
    13  H    2.573919   3.612133   2.664034   3.727717   2.093669
    14  C    4.485925   5.560723   3.919666   4.744193   2.502827
    15  H    5.097302   6.147372   4.277759   4.918581   2.755413
    16  C    5.310004   6.374457   5.005490   5.924572   3.720446
    17  H    5.120834   6.137939   5.099096   6.108747   4.045064
    18  H    6.361366   7.430630   5.975305   6.842169   4.605329
                   11         12         13         14         15
    11  H    0.000000
    12  C    2.102469   0.000000
    13  H    3.056953   1.100896   0.000000
    14  C    2.698573   1.515106   2.292255   0.000000
    15  H    2.508406   2.246490   3.220974   1.076911   0.000000
    16  C    4.039696   2.494804   2.795103   1.350176   2.104672
    17  H    4.599620   2.701040   2.553067   2.110421   3.062365
    18  H    4.747689   3.478969   3.867684   2.107685   2.427372
                   16         17         18
    16  C    0.000000
    17  H    1.076072   0.000000
    18  H    1.075869   1.857320   0.000000
 Stoichiometry    C8H10
 Framework group  CS[SG(C8H10)]
 Deg. of freedom    33
 Full point group                 CS      NOp   2
 Largest Abelian subgroup         CS      NOp   2
 Largest concise Abelian subgroup C1      NOp   1
                         Standard orientation:                         
 ---------------------------------------------------------------------
 Center     Atomic      Atomic             Coordinates (Angstroms)
 Number     Number       Type             X           Y           Z
 ---------------------------------------------------------------------
      1          6           0        2.945647    0.595592    0.000000
      2          1           0        3.816563   -0.037681    0.000000
      3          1           0        3.072256    1.664318    0.000000
      4          6           0        1.705526    0.059701    0.000000
      5          1           0        0.797872    0.683808    0.000000
      6          6           0        1.495711   -1.439310    0.000000
      7          1           0        2.362960   -2.076595    0.000000
      8          6           0        0.254831   -1.996394    0.000000
      9          1           0        0.165138   -3.068634    0.000000
     10          6           0       -1.026772   -1.169184    0.000000
     11          1           0       -1.975706   -1.677289    0.000000
     12          6           0       -0.993815    0.181815    0.000000
     13          1           0        0.000000    0.655423    0.000000
     14          6           0       -2.265335    1.005697    0.000000
     15          1           0       -3.217331    0.502269    0.000000
     16          6           0       -2.218959    2.355077    0.000000
     17          1           0       -1.273198    2.868367    0.000000
     18          1           0       -3.129558    2.928053    0.000000
 ---------------------------------------------------------------------
 Rotational constants (GHZ):      3.1065903      1.2163757      0.8741177
 Standard basis: 6-31G(d) (6D, 7F)
 There are   108 symmetry adapted basis functions of A'  symmetry.
 There are    32 symmetry adapted basis functions of A"  symmetry.
 Integral buffers will be    131072 words long.
 Raffenetti 2 integral format.
 Two-electron integral symmetry is turned on.
   140 basis functions,   264 primitive gaussians,   140 cartesian basis functions
    29 alpha electrons       29 beta electrons
       nuclear repulsion energy       315.7433328574 Hartrees.
 NAtoms=   18 NActive=   18 NUniq=   18 SFac= 1.00D+00 NAtFMM=   60 NAOKFM=F Big=F
 One-electron integrals computed using PRISM.
 NBasis=   140 RedAO= T  NBF=   108    32
 NBsUse=   140 1.00D-06 NBFU=   108    32
 Initial guess read from the read-write file.
 B after Tr=     0.000000    0.000000    0.000000
         Rot=    1.000000    0.000000    0.000000    0.000000 Ang=   0.00 deg.
 Initial guess orbital symmetries:
       Occupied  (A') (A') (A') (A') (A') (A') (A') (A') (A') (A')
                 (A') (A') (A') (A') (A') (A') (A') (A') (A') (A')
                 (A') (A') (A') (A') (A") (A") (A') (A") (A")
       Virtual   (A") (A") (A") (A') (A") (A') (A') (A') (A') (A')
                 (A') (A') (A') (A') (A') (A') (A') (A') (A') (A')
                 (A') (A') (A") (A') (A') (A") (A") (A') (A") (A')
                 (A") (A') (A') (A") (A') (A') (A") (A") (A') (A')
                 (A') (A') (A') (A') (A') (A') (A') (A') (A') (A')
                 (A') (A') (A') (A') (A') (A') (A') (A') (A') (A")
                 (A") (A') (A") (A") (A') (A") (A") (A') (A") (A')
                 (A") (A') (A") (A') (A') (A') (A') (A') (A") (A')
                 (A') (A") (A') (A') (A") (A') (A') (A') (A") (A')
                 (A") (A") (A') (A") (A') (A') (A') (A') (A') (A')
                 (A') (A') (A') (A') (A') (A') (A') (A') (A') (A')
                 (A')
 Harris functional with IExCor=  402 diagonalized for initial guess.
 ExpMin= 1.61D-01 ExpMax= 3.05D+03 ExpMxC= 4.57D+02 IAcc=1 IRadAn=         1 AccDes= 0.00D+00
 HarFok:  IExCor=  402 AccDes= 0.00D+00 IRadAn=         1 IDoV= 1
 ScaDFX=  1.000000  1.000000  1.000000  1.000000
 FoFCou: FMM=F IPFlag=           0 FMFlag=      100000 FMFlg1=           0
         NFxFlg=           0 DoJE=T BraDBF=F KetDBF=T FulRan=T
         Omega=  0.000000  0.000000  1.000000  0.000000  0.000000 ICntrl=     500 IOpCl=  0
         NMat0=    1 NMatS0=    1 NMatT0=    0 NMatD0=    1 NMtDS0=    0 NMtDT0=    0
         I1Cent=           4 NGrid=           0.
 Petite list used in FoFCou.
 Requested convergence on RMS density matrix=1.00D-08 within 128 cycles.
 Requested convergence on MAX density matrix=1.00D-06.
 Requested convergence on             energy=1.00D-06.
 No special actions if energy rises.
 Integral accuracy reduced to 1.0D-05 until final iterations.
 Initial convergence to 1.0D-05 achieved.  Increase integral accuracy.
 SCF Done:  E(RB3LYP) =  -310.693017139     A.U. after   13 cycles
             Convg  =    0.4396D-08             -V/T =  2.0095
 Calling FoFJK, ICntrl=      2127 FMM=F ISym2X=1 I1Cent= 0 IOpClX= 0 NMat=1 NMatS=1 NMatT=0.
 ***** Axes restored to original set *****
 -------------------------------------------------------------------
 Center     Atomic                   Forces (Hartrees/Bohr)
 Number     Number              X              Y              Z
 -------------------------------------------------------------------
      1        6           0.011686319    0.003727042    0.019670452
      2        1          -0.003622130   -0.005174541   -0.005975349
      3        1          -0.003690787    0.003937403   -0.006366864
      4        6          -0.017839180   -0.051298757   -0.028649016
      5        1          -0.065809538   -0.063622900   -0.109482759
      6        6           0.003032539    0.038519695    0.003969843
      7        1          -0.003523557   -0.005510444   -0.005798332
      8        6           0.002880210    0.035266497    0.003810260
      9        1           0.002881643   -0.005539470    0.005045515
     10        6          -0.018045305   -0.028126000   -0.029698049
     11        1           0.004089280   -0.003770497    0.007036405
     12        6           0.033138551    0.040867749    0.054863526
     13        1           0.068096495    0.064851569    0.113317088
     14        6          -0.020977933   -0.016078252   -0.035026502
     15        1           0.004108970   -0.003767776    0.007069655
     16        6           0.006905854   -0.016429075    0.012186852
     17        1          -0.003602016    0.003974644   -0.006217714
     18        1           0.000290586    0.008173112    0.000244989
 -------------------------------------------------------------------
 Cartesian Forces:  Max     0.113317088 RMS     0.033300724

 GradGradGradGradGradGradGradGradGradGradGradGradGradGradGradGradGradGrad
 Berny optimization.
 Using GEDIIS/GDIIS optimizer.
 Internal  Forces:  Max     0.166884014 RMS     0.021625111
 Search for a local minimum.
 Step number   2 out of a maximum of   87
 All quantities printed in internal units (Hartrees-Bohrs-Radians)
 Mixed Optimization -- RFO/linear search
 Update second derivatives using D2CorX and points    1    2
 DE= -7.57D-02 DEPred=-8.14D-02 R= 9.30D-01
 SS=  1.41D+00  RLast= 3.00D-01 DXNew= 5.0454D-01 8.9997D-01
 Trust test= 9.30D-01 RLast= 3.00D-01 DXMaxT set to 5.05D-01
 ITU=  1  0
 Use linear search instead of GDIIS.
 Linear search step of   0.600 exceeds DXMaxT=   0.505 but not scaled.
 Quartic linear search produced a step of  2.00000.
 Iteration  1 RMS(Cart)=  0.11557134 RMS(Int)=  0.03123575
 Iteration  2 RMS(Cart)=  0.04828104 RMS(Int)=  0.00770444
 Iteration  3 RMS(Cart)=  0.01486409 RMS(Int)=  0.00096153
 Iteration  4 RMS(Cart)=  0.00003905 RMS(Int)=  0.00096123
 Iteration  5 RMS(Cart)=  0.00000003 RMS(Int)=  0.00096123
 ClnCor:  largest displacement from symmetrization is 8.17D-08 for atom    13.
 Variable       Old X    -DE/DX   Delta X   Delta X   Delta X     New X
                                 (Linear)    (Quad)   (Total)
    R1        2.03488   0.00789   0.02575   0.00000   0.02575   2.06064
    R2        2.03372   0.00725   0.02343   0.00000   0.02343   2.05715
    R3        2.55294  -0.00862  -0.01604   0.00000  -0.01604   2.53689
    R4        2.08157   0.01981   0.11913   0.00000   0.11740   2.19897
    R5        2.86033  -0.03071  -0.09969   0.00000  -0.09992   2.76041
    R6        1.50871   0.16688   0.48111   0.00000   0.47948   1.98820
    R7        2.03376   0.00806   0.02351   0.00000   0.02351   2.05728
    R8        2.57039   0.00494   0.01887   0.00000   0.02015   2.59054
    R9        2.03332   0.00771   0.02262   0.00000   0.02262   2.05594
   R10        2.88255  -0.02342  -0.05526   0.00000  -0.05350   2.82905
   R11        2.03411   0.00831   0.02421   0.00000   0.02421   2.05832
   R12        2.55378  -0.00236  -0.01436   0.00000  -0.01355   2.54022
   R13        2.08039   0.01775   0.11677   0.00000   0.11557   2.19597
   R14        2.86313  -0.03390  -0.09409   0.00000  -0.09409   2.76905
   R15        2.03507   0.00832   0.02612   0.00000   0.02612   2.06119
   R16        2.55146  -0.00709  -0.01899   0.00000  -0.01899   2.53248
   R17        2.03348   0.00739   0.02295   0.00000   0.02295   2.05643
   R18        2.03310   0.00710   0.02218   0.00000   0.02218   2.05528
    A1        2.08159  -0.00528  -0.02166   0.00000  -0.02166   2.05993
    A2        2.10499   0.00217   0.01328   0.00000   0.01328   2.11827
    A3        2.09661   0.00311   0.00838   0.00000   0.00838   2.10499
    A4        2.13134   0.00880   0.06597   0.00000   0.06694   2.19828
    A5        2.11775   0.01336   0.05068   0.00000   0.05165   2.16941
    A6        2.03409  -0.02216  -0.11665   0.00000  -0.11859   1.91550
    A7        2.50367  -0.00139   0.03260   0.00000   0.02887   2.53255
    A8        2.06546  -0.01321  -0.05392   0.00000  -0.05456   2.01089
    A9        2.13184   0.01957   0.06696   0.00000   0.06825   2.20008
   A10        2.08589  -0.00636  -0.01304   0.00000  -0.01369   2.07221
   A11        2.07623  -0.01198  -0.04426   0.00000  -0.04596   2.03027
   A12        2.14645   0.02850   0.10807   0.00000   0.11147   2.25792
   A13        2.06051  -0.01652  -0.06381   0.00000  -0.06551   1.99500
   A14        2.07682  -0.00992  -0.03119   0.00000  -0.03269   2.04413
   A15        2.11958   0.01296   0.04244   0.00000   0.04544   2.16502
   A16        2.08679  -0.00304  -0.01125   0.00000  -0.01275   2.07404
   A17        2.03990  -0.02412  -0.11690   0.00000  -0.11657   1.92333
   A18        2.12134   0.01652   0.05785   0.00000   0.05768   2.17902
   A19        2.12194   0.00761   0.05906   0.00000   0.05889   2.18083
   A20        2.73244  -0.01336  -0.01651   0.00000  -0.01887   2.71357
   A21        2.08023  -0.00804  -0.02437   0.00000  -0.02437   2.05585
   A22        2.11137   0.00911   0.02604   0.00000   0.02604   2.13741
   A23        2.09158  -0.00108  -0.00166   0.00000  -0.00166   2.08992
   A24        2.10239   0.00211   0.00807   0.00000   0.00807   2.11047
   A25        2.09808   0.00309   0.01133   0.00000   0.01133   2.10940
   A26        2.08271  -0.00520  -0.01940   0.00000  -0.01940   2.06331
    D1        3.14159   0.00000   0.00000   0.00000   0.00000   3.14159
    D2        0.00000   0.00000   0.00000   0.00000   0.00000   0.00000
    D3        0.00000   0.00000   0.00000   0.00000   0.00000   0.00000
    D4        3.14159   0.00000   0.00000   0.00000   0.00000   3.14159
    D5        3.14159   0.00000   0.00000   0.00000   0.00000   3.14159
    D6        0.00000   0.00000   0.00000   0.00000   0.00000   0.00000
    D7        0.00000   0.00000   0.00000   0.00000   0.00000   0.00000
    D8        3.14159   0.00000   0.00000   0.00000   0.00000   3.14159
    D9        3.14159   0.00000   0.00000   0.00000   0.00000   3.14159
   D10        0.00000   0.00000   0.00000   0.00000   0.00000   0.00000
   D11        0.00000   0.00000   0.00000   0.00000   0.00000   0.00000
   D12        3.14159   0.00000   0.00000   0.00000   0.00000   3.14159
   D13        0.00000   0.00000   0.00000   0.00000   0.00000   0.00000
   D14        0.00000   0.00000   0.00000   0.00000   0.00000   0.00000
   D15       -3.14159   0.00000   0.00000   0.00000   0.00000   3.14159
   D16       -3.14159   0.00000   0.00000   0.00000   0.00000   3.14159
   D17        0.00000   0.00000   0.00000   0.00000   0.00000   0.00000
   D18        0.00000   0.00000   0.00000   0.00000   0.00000   0.00000
   D19        3.14159   0.00000   0.00000   0.00000   0.00000   3.14159
   D20        0.00000   0.00000   0.00000   0.00000   0.00000   0.00000
   D21        3.14159   0.00000   0.00000   0.00000   0.00000   3.14159
   D22        3.14159   0.00000   0.00000   0.00000   0.00000  -3.14159
   D23        0.00000   0.00000   0.00000   0.00000   0.00000   0.00000
   D24        0.00000   0.00000   0.00000   0.00000   0.00000   0.00000
   D25        3.14159   0.00000   0.00000   0.00000   0.00000   3.14159
   D26        0.00000   0.00000   0.00000   0.00000   0.00000   0.00000
   D27        3.14159   0.00000   0.00000   0.00000   0.00000   3.14159
   D28        3.14159   0.00000   0.00000   0.00000   0.00000   3.14159
   D29        0.00000   0.00000   0.00000   0.00000   0.00000   0.00000
   D30        0.00000   0.00000   0.00000   0.00000   0.00000   0.00000
   D31        3.14159   0.00000   0.00000   0.00000   0.00000   3.14159
   D32        3.14159   0.00000   0.00000   0.00000   0.00000   3.14159
   D33        0.00000   0.00000   0.00000   0.00000   0.00000   0.00000
         Item               Value     Threshold  Converged?
 Maximum Force            0.166884     0.000450     NO 
 RMS     Force            0.021625     0.000300     NO 
 Maximum Displacement     0.510295     0.001800     NO 
 RMS     Displacement     0.176516     0.001200     NO 
 Predicted change in Energy=-2.154557D-02
 GradGradGradGradGradGradGradGradGradGradGradGradGradGradGradGradGradGrad

                          Input orientation:                          
 ---------------------------------------------------------------------
 Center     Atomic      Atomic             Coordinates (Angstroms)
 Number     Number       Type             X           Y           Z
 ---------------------------------------------------------------------
      1          6           0       -5.699727    3.104109   -0.853799
      2          1           0       -5.943185    2.112272   -1.235968
      3          1           0       -6.024857    3.968389   -1.430303
      4          6           0       -5.019667    3.263719    0.292611
      5          1           0       -4.718176    4.280128    0.772279
      6          6           0       -4.545563    2.163534    1.128432
      7          1           0       -4.780939    1.166477    0.760101
      8          6           0       -3.849456    2.284697    2.303168
      9          1           0       -3.573467    1.356153    2.798426
     10          6           0       -3.404036    3.521310    3.019832
     11          1           0       -2.856191    3.385229    3.951355
     12          6           0       -3.639810    4.770512    2.582963
     13          1           0       -4.231043    4.740971    1.582993
     14          6           0       -3.212348    5.992338    3.269673
     15          1           0       -2.661770    5.883949    4.204988
     16          6           0       -3.473824    7.216084    2.790065
     17          1           0       -4.021591    7.346448    1.858845
     18          1           0       -3.143975    8.105799    3.321566
 ---------------------------------------------------------------------
                    Distance matrix (angstroms):
                    1          2          3          4          5
     1  C    0.000000
     2  H    1.090443   0.000000
     3  H    1.088599   1.868049   0.000000
     4  C    1.342465   2.124916   2.115515   0.000000
     5  H    2.233963   3.198953   2.579916   1.163643   0.000000
     6  C    2.479116   2.747065   3.463083   1.460746   2.153279
     7  H    2.683890   2.495924   3.767747   2.161935   3.114307
     8  C    3.749850   4.115691   4.637456   2.523929   2.660834
     9  H    4.573300   4.739579   5.542133   3.465459   3.737012
    10  C    4.522087   5.152136   5.183849   3.180307   2.711874
    11  H    5.590548   6.169139   6.272381   4.252270   3.791352
    12  C    4.339527   5.191918   4.736894   3.069225   2.163776
    13  H    3.282423   4.217585   3.590906   2.114068   1.052108
    14  C    5.615331   6.543178   5.839208   4.424326   3.381739
    15  H    6.522884   7.388994   6.836390   5.266116   4.310978
    16  C    5.927962   6.953818   5.904812   4.924236   3.773554
    17  H    5.307731   6.377067   5.122777   4.485300   3.326886
    18  H    6.998746   8.032998   6.928052   6.011533   4.859293
                    6          7          8          9         10
     6  C    0.000000
     7  H    1.088665   0.000000
     8  C    1.370857   2.121116   0.000000
     9  H    2.094209   2.376706   1.087954   0.000000
    10  C    2.593074   3.542243   1.497070   2.183033   0.000000
    11  H    3.509332   4.337236   2.216815   2.441492   1.089214
    12  C    3.119677   4.196912   2.510282   3.421794   1.344228
    13  H    2.636045   3.708982   2.587961   3.656047   2.058160
    14  C    4.584988   5.661039   3.884153   4.674045   2.491013
    15  H    5.182216   6.213909   4.240535   4.828100   2.745472
    16  C    5.425672   6.513605   4.969582   5.860784   3.702569
    17  H    5.260290   6.322649   5.084130   6.080071   4.044867
    18  H    6.487280   7.575945   5.951476   6.783500   4.601763
                   11         12         13         14         15
    11  H    0.000000
    12  C    2.098943   0.000000
    13  H    3.055715   1.162055   0.000000
    14  C    2.718190   1.465317   2.334213   0.000000
    15  H    2.519073   2.197104   3.262495   1.090733   0.000000
    16  C    4.050372   2.459932   2.855974   1.340129   2.106186
    17  H    4.629040   2.702878   2.628398   2.116347   3.080975
    18  H    4.771083   3.451887   3.940358   2.115203   2.439175
                   16         17         18
    16  C    0.000000
    17  H    1.088217   0.000000
    18  H    1.087606   1.867184   0.000000
 Stoichiometry    C8H10
 Framework group  CS[SG(C8H10)]
 Deg. of freedom    33
 Full point group                 CS      NOp   2
 Largest Abelian subgroup         CS      NOp   2
 Largest concise Abelian subgroup C1      NOp   1
                         Standard orientation:                         
 ---------------------------------------------------------------------
 Center     Atomic      Atomic             Coordinates (Angstroms)
 Number     Number       Type             X           Y           Z
 ---------------------------------------------------------------------
      1          6           0        3.226008    0.101608    0.000000
      2          1           0        3.980984   -0.685206    0.000000
      3          1           0        3.565255    1.135996    0.000000
      4          6           0        1.915107   -0.187791    0.000000
      5          1           0        1.044917    0.584760    0.000000
      6          6           0        1.371481   -1.543612    0.000000
      7          1           0        2.113054   -2.340645    0.000000
      8          6           0        0.042550   -1.880053    0.000000
      9          1           0       -0.185855   -2.943761    0.000000
     10          6           0       -1.162060   -0.991158    0.000000
     11          1           0       -2.137207   -1.476414    0.000000
     12          6           0       -1.106294    0.351913    0.000000
     13          1           0        0.000000    0.707559    0.000000
     14          6           0       -2.273055    1.238379    0.000000
     15          1           0       -3.261741    0.777727    0.000000
     16          6           0       -2.161811    2.573883    0.000000
     17          1           0       -1.185058    3.053643    0.000000
     18          1           0       -3.045906    3.207334    0.000000
 ---------------------------------------------------------------------
 Rotational constants (GHZ):      3.3498900      1.0701639      0.8110606
 Standard basis: 6-31G(d) (6D, 7F)
 There are   108 symmetry adapted basis functions of A'  symmetry.
 There are    32 symmetry adapted basis functions of A"  symmetry.
 Integral buffers will be    131072 words long.
 Raffenetti 2 integral format.
 Two-electron integral symmetry is turned on.
   140 basis functions,   264 primitive gaussians,   140 cartesian basis functions
    29 alpha electrons       29 beta electrons
       nuclear repulsion energy       311.3708709546 Hartrees.
 NAtoms=   18 NActive=   18 NUniq=   18 SFac= 1.00D+00 NAtFMM=   60 NAOKFM=F Big=F
 One-electron integrals computed using PRISM.
 NBasis=   140 RedAO= T  NBF=   108    32
 NBsUse=   140 1.00D-06 NBFU=   108    32
 Initial guess read from the read-write file.
 B after Tr=     0.000000    0.000000    0.000000
         Rot=    1.000000    0.000000    0.000000    0.000000 Ang=   0.00 deg.
 Initial guess orbital symmetries:
       Occupied  (A') (A') (A') (A') (A') (A') (A') (A') (A') (A')
                 (A') (A') (A') (A') (A') (A') (A') (A') (A') (A')
                 (A') (A') (A') (A') (A") (A") (A') (A") (A")
       Virtual   (A") (A") (A") (A') (A") (A') (A') (A') (A') (A')
                 (A') (A') (A') (A') (A') (A') (A') (A') (A') (A')
                 (A') (A') (A") (A') (A") (A') (A") (A') (A') (A")
                 (A") (A') (A') (A") (A') (A') (A") (A") (A') (A')
                 (A') (A') (A') (A') (A') (A') (A') (A') (A') (A')
                 (A') (A') (A') (A') (A') (A') (A') (A') (A') (A")
                 (A') (A") (A") (A') (A") (A") (A') (A") (A") (A')
                 (A") (A') (A") (A') (A') (A') (A') (A') (A") (A')
                 (A') (A") (A') (A') (A") (A') (A') (A') (A') (A")
                 (A") (A") (A') (A") (A') (A') (A') (A') (A') (A')
                 (A') (A') (A') (A') (A') (A') (A') (A') (A') (A')
                 (A')
 Harris functional with IExCor=  402 diagonalized for initial guess.
 ExpMin= 1.61D-01 ExpMax= 3.05D+03 ExpMxC= 4.57D+02 IAcc=1 IRadAn=         1 AccDes= 0.00D+00
 HarFok:  IExCor=  402 AccDes= 0.00D+00 IRadAn=         1 IDoV= 1
 ScaDFX=  1.000000  1.000000  1.000000  1.000000
 FoFCou: FMM=F IPFlag=           0 FMFlag=      100000 FMFlg1=           0
         NFxFlg=           0 DoJE=T BraDBF=F KetDBF=T FulRan=T
         Omega=  0.000000  0.000000  1.000000  0.000000  0.000000 ICntrl=     500 IOpCl=  0
         NMat0=    1 NMatS0=    1 NMatT0=    0 NMatD0=    1 NMtDS0=    0 NMtDT0=    0
         I1Cent=           4 NGrid=           0.
 Petite list used in FoFCou.
 Requested convergence on RMS density matrix=1.00D-08 within 128 cycles.
 Requested convergence on MAX density matrix=1.00D-06.
 Requested convergence on             energy=1.00D-06.
 No special actions if energy rises.
 Integral accuracy reduced to 1.0D-05 until final iterations.
 Initial convergence to 1.0D-05 achieved.  Increase integral accuracy.
 SCF Done:  E(RB3LYP) =  -310.752556705     A.U. after   15 cycles
             Convg  =    0.5787D-08             -V/T =  2.0105
 Calling FoFJK, ICntrl=      2127 FMM=F ISym2X=1 I1Cent= 0 IOpClX= 0 NMat=1 NMatS=1 NMatT=0.
 ***** Axes restored to original set *****
 -------------------------------------------------------------------
 Center     Atomic                   Forces (Hartrees/Bohr)
 Number     Number              X              Y              Z
 -------------------------------------------------------------------
      1        6           0.001538585    0.008111624    0.002359507
      2        1           0.000157887    0.002028329    0.000205997
      3        1          -0.000660328   -0.003185048   -0.001021602
      4        6           0.011079007    0.012071361    0.018390273
      5        1          -0.035520707   -0.046383424   -0.058729493
      6        6           0.003864691    0.006050971    0.006359487
      7        1           0.001157783   -0.002091641    0.002023133
      8        6           0.001584142    0.012040053    0.002317943
      9        1           0.000146675   -0.000138502    0.000252481
     10        6          -0.006098143   -0.024072246   -0.009595902
     11        1           0.000085915   -0.003665823    0.000256191
     12        6          -0.008725708    0.005843370   -0.014947757
     13        1           0.039167260    0.038798702    0.065131668
     14        6          -0.007984289   -0.009094901   -0.013241339
     15        1          -0.000565592   -0.002380570   -0.000885534
     16        6           0.001475070    0.003685673    0.002385704
     17        1           0.000714779    0.001915095    0.001152146
     18        1          -0.001417026    0.000466976   -0.002412904
 -------------------------------------------------------------------
 Cartesian Forces:  Max     0.065131668 RMS     0.017487745

 GradGradGradGradGradGradGradGradGradGradGradGradGradGradGradGradGradGrad
 Berny optimization.
 Using GEDIIS/GDIIS optimizer.
 Internal  Forces:  Max     0.054213939 RMS     0.008910472
 Search for a local minimum.
 Step number   3 out of a maximum of   87
 All quantities printed in internal units (Hartrees-Bohrs-Radians)
 Mixed Optimization -- RFO/linear search
 Update second derivatives using D2CorX and points    2    3
 ITU=  0  1  0
 Use linear search instead of GDIIS.
     Eigenvalues ---    0.00237   0.00364   0.00373   0.00896   0.01123
     Eigenvalues ---    0.01313   0.01460   0.01482   0.01483   0.01774
     Eigenvalues ---    0.02203   0.02681   0.02681   0.02681   0.02681
     Eigenvalues ---    0.15853   0.16000   0.16000   0.16000   0.16000
     Eigenvalues ---    0.16000   0.16000   0.16000   0.16008   0.17154
     Eigenvalues ---    0.18833   0.21370   0.21721   0.22000   0.22003
     Eigenvalues ---    0.23803   0.28397   0.28436   0.29949   0.36847
     Eigenvalues ---    0.37096   0.37230   0.37230   0.37230   0.37230
     Eigenvalues ---    0.37230   0.37230   0.37237   0.40200   0.52728
     Eigenvalues ---    0.52919   0.53928   0.54119
 RFO step:  Lambda=-2.08442142D-02 EMin= 2.36824152D-03
 Quartic linear search produced a step of  0.46340.
 Iteration  1 RMS(Cart)=  0.04421933 RMS(Int)=  0.01621653
 Iteration  2 RMS(Cart)=  0.03194399 RMS(Int)=  0.00050040
 Iteration  3 RMS(Cart)=  0.00018631 RMS(Int)=  0.00048795
 Iteration  4 RMS(Cart)=  0.00000010 RMS(Int)=  0.00048795
 ClnCor:  largest displacement from symmetrization is 1.22D-07 for atom    15.
 Variable       Old X    -DE/DX   Delta X   Delta X   Delta X     New X
                                 (Linear)    (Quad)   (Total)
    R1        2.06064  -0.00196   0.01193  -0.00915   0.00278   2.06342
    R2        2.05715  -0.00179   0.01086  -0.00844   0.00241   2.05957
    R3        2.53689  -0.00267  -0.00743  -0.00374  -0.01117   2.52572
    R4        2.19897  -0.02729   0.05440  -0.09105  -0.03750   2.16147
    R5        2.76041  -0.00129  -0.04630   0.00524  -0.04153   2.71888
    R6        1.98820   0.05421   0.22219   0.12415   0.34575   2.33395
    R7        2.05728   0.00098   0.01090   0.00089   0.01179   2.06907
    R8        2.59054  -0.01181   0.00934  -0.03103  -0.02139   2.56916
    R9        2.05594   0.00027   0.01048  -0.00159   0.00889   2.06483
   R10        2.82905  -0.02119  -0.02479  -0.08339  -0.10736   2.72169
   R11        2.05832   0.00072   0.01122  -0.00016   0.01105   2.06937
   R12        2.54022   0.01251  -0.00628   0.03218   0.02663   2.56686
   R13        2.19597  -0.02922   0.05356  -0.09475  -0.04139   2.15457
   R14        2.76905  -0.01287  -0.04360  -0.04105  -0.08465   2.68440
   R15        2.06119  -0.00081   0.01210  -0.00530   0.00681   2.06799
   R16        2.53248   0.00498  -0.00880   0.01420   0.00540   2.53788
   R17        2.05643  -0.00112   0.01063  -0.00627   0.00436   2.06079
   R18        2.05528  -0.00123   0.01028  -0.00654   0.00374   2.05901
    A1        2.05993  -0.00241  -0.01004  -0.01583  -0.02586   2.03406
    A2        2.11827  -0.00115   0.00615  -0.00874  -0.00259   2.11568
    A3        2.10499   0.00355   0.00388   0.02457   0.02845   2.13344
    A4        2.19828  -0.00955   0.03102  -0.06421  -0.03242   2.16586
    A5        2.16941   0.00274   0.02393   0.01331   0.03801   2.20741
    A6        1.91550   0.00681  -0.05496   0.05090  -0.00559   1.90991
    A7        2.53255  -0.00448   0.01338  -0.02220  -0.01071   2.52184
    A8        2.01089   0.00179  -0.02528   0.02588   0.00069   2.01158
    A9        2.20008   0.00253   0.03163  -0.00367   0.02777   2.22786
   A10        2.07221  -0.00432  -0.00634  -0.02221  -0.02846   2.04374
   A11        2.03027   0.00021  -0.02130   0.00872  -0.01319   2.01708
   A12        2.25792  -0.00006   0.05165  -0.01722   0.03566   2.29357
   A13        1.99500  -0.00015  -0.03036   0.00850  -0.02247   1.97253
   A14        2.04413  -0.00555  -0.01515  -0.03363  -0.04967   1.99446
   A15        2.16502   0.00367   0.02106   0.01580   0.03864   2.20366
   A16        2.07404   0.00188  -0.00591   0.01783   0.01103   2.08506
   A17        1.92333   0.00356  -0.05402   0.04421  -0.00883   1.91450
   A18        2.17902   0.00478   0.02673   0.01698   0.04322   2.22224
   A19        2.18083  -0.00834   0.02729  -0.06119  -0.03439   2.14644
   A20        2.71357  -0.01203  -0.00874  -0.06782  -0.07694   2.63663
   A21        2.05585  -0.00622  -0.01129  -0.03527  -0.04657   2.00929
   A22        2.13741   0.00733   0.01207   0.03674   0.04881   2.18622
   A23        2.08992  -0.00111  -0.00077  -0.00147  -0.00224   2.08768
   A24        2.11047   0.00108   0.00374   0.00703   0.01077   2.12124
   A25        2.10940   0.00208   0.00525   0.01407   0.01932   2.12872
   A26        2.06331  -0.00316  -0.00899  -0.02111  -0.03010   2.03322
    D1        3.14159   0.00000   0.00000   0.00000   0.00000   3.14159
    D2        0.00000   0.00000   0.00000   0.00000   0.00000   0.00000
    D3        0.00000   0.00000   0.00000   0.00000   0.00000   0.00000
    D4        3.14159   0.00000   0.00000   0.00000   0.00000   3.14159
    D5        3.14159   0.00000   0.00000   0.00000   0.00000   3.14159
    D6        0.00000   0.00000   0.00000   0.00000   0.00000   0.00000
    D7        0.00000   0.00000   0.00000   0.00000   0.00000   0.00000
    D8        3.14159   0.00000   0.00000   0.00000   0.00000   3.14159
    D9        3.14159   0.00000   0.00000   0.00000   0.00000   3.14159
   D10        0.00000   0.00000   0.00000   0.00000   0.00000   0.00000
   D11        0.00000   0.00000   0.00000   0.00000   0.00000   0.00000
   D12        3.14159   0.00000   0.00000   0.00000   0.00000   3.14159
   D13        0.00000   0.00000   0.00000   0.00000   0.00000   0.00000
   D14        0.00000   0.00000   0.00000   0.00000   0.00000   0.00000
   D15        3.14159   0.00000   0.00000   0.00000   0.00000   3.14159
   D16        3.14159   0.00000   0.00000   0.00000   0.00000   3.14159
   D17        0.00000   0.00000   0.00000   0.00000   0.00000   0.00000
   D18        0.00000   0.00000   0.00000   0.00000   0.00000   0.00000
   D19        3.14159   0.00000   0.00000   0.00000   0.00000   3.14159
   D20        0.00000   0.00000   0.00000   0.00000   0.00000   0.00000
   D21        3.14159   0.00000   0.00000   0.00000   0.00000  -3.14159
   D22        3.14159   0.00000   0.00000   0.00000   0.00000   3.14159
   D23        0.00000   0.00000   0.00000   0.00000   0.00000   0.00000
   D24        0.00000   0.00000   0.00000   0.00000   0.00000   0.00000
   D25        3.14159   0.00000   0.00000   0.00000   0.00000   3.14159
   D26        0.00000   0.00000   0.00000   0.00000   0.00000   0.00000
   D27        3.14159   0.00000   0.00000   0.00000   0.00000   3.14159
   D28        3.14159   0.00000   0.00000   0.00000   0.00000   3.14159
   D29        0.00000   0.00000   0.00000   0.00000   0.00000   0.00000
   D30        0.00000   0.00000   0.00000   0.00000   0.00000   0.00000
   D31        3.14159   0.00000   0.00000   0.00000   0.00000   3.14159
   D32        3.14159   0.00000   0.00000   0.00000   0.00000   3.14159
   D33        0.00000   0.00000   0.00000   0.00000   0.00000   0.00000
         Item               Value     Threshold  Converged?
 Maximum Force            0.054214     0.000450     NO 
 RMS     Force            0.008910     0.000300     NO 
 Maximum Displacement     0.189720     0.001800     NO 
 RMS     Displacement     0.069139     0.001200     NO 
 Predicted change in Energy=-9.296107D-03
 GradGradGradGradGradGradGradGradGradGradGradGradGradGradGradGradGradGrad

                          Input orientation:                          
 ---------------------------------------------------------------------
 Center     Atomic      Atomic             Coordinates (Angstroms)
 Number     Number       Type             X           Y           Z
 ---------------------------------------------------------------------
      1          6           0       -5.717435    3.038143   -0.881782
      2          1           0       -5.951539    2.036399   -1.247818
      3          1           0       -6.062884    3.872644   -1.491784
      4          6           0       -5.041521    3.219207    0.256960
      5          1           0       -4.770128    4.244415    0.685411
      6          6           0       -4.544416    2.188947    1.129606
      7          1           0       -4.752850    1.163385    0.807744
      8          6           0       -3.855471    2.345550    2.291147
      9          1           0       -3.571684    1.420909    2.799487
     10          6           0       -3.421793    3.528122    2.989566
     11          1           0       -2.876844    3.328163    3.918118
     12          6           0       -3.629067    4.812730    2.599874
     13          1           0       -4.208713    4.827650    1.618176
     14          6           0       -3.212231    5.993961    3.269822
[...]
 074913,0.0889757,-0.0208222,-0.0290441,0.0058896,-0.0772313,0.0155212,
 -0.0298511,-0.0296976,0.0568684,-0.0320988,0.0359304,0.1087727,-0.0588
 106,0.0026783,-0.1025681,0.111635,0.057813,0.0902387,0.0709102,-0.0432
 633,-0.0492562,-0.0100332,-0.1125865,-0.0105384,-0.0502601,-0.0667916,
 0.0177148,-0.1480034,-0.0994292,-0.0198901,0.1080042,0.3767626,0.16738
 8,-0.026157,-0.1837632,-0.1732072,0.0682143,0.0401837,-0.0602344,0.028
 2171,-0.1086335,0.0541633,-0.0598729,0.0744208,-0.0005245,0.023732,0.0
 828779,0.2242027,-0.0083686,-0.1165507,-0.0139744,0.2269594,0.1404911,
 0.2697722,0.0388564,0.0044676,-0.1161903,0.0039978,0.0336057,0.0089975
 ,-0.1161761,0.0097928,-0.0895502,-0.0684559,-0.0109547,0.0305213,-0.01
 43633,0.022777,-0.0276098,0.0306243,-0.0218397,-0.0337883,0.0521382,0.
 0022787,-0.0926503,0.0281472,0.0247436,0.0501285,-0.0934318,0.0063375,
 -0.0515282,0.0184182,0.117232,0.1572744,-0.0047854,0.1473622,-0.014866
 6,0.1609608,0.1916892,0.1901096,0.0455718,-0.0087108,-0.1041914,0.0343
 48,0.0103303,0.0610745,-0.1054923,-0.0118171,-0.0709488,-0.228773,-0.0
 637925,0.1487802,-0.0361896,-0.2026551,-0.0646731,0.1479462,-0.1114004
 ,-0.0617077,0.0776793,0.0250931,-0.1032871,0.0008241,0.0359343,0.00448
 61,-0.1025538,0.0455696,-0.0367383,0.0946283,-0.0441995,-0.0718034,-0.
 0383231,-0.04604,-0.0593196,-0.071981,-0.0692674,0.0180736\Polar=59.09
 59409,23.6791768,150.7663622,50.23461,36.4061789,112.9377536\PG=CS [SG
 (C8H10)]\NImag=1\\0.28974465,0.02939073,0.66279208,0.31484188,0.032848
 45,0.63521967,-0.04571244,-0.03492591,-0.01852909,0.03658595,-0.036747
 51,-0.32275807,-0.05348798,0.04141448,0.34130270,-0.01847406,-0.050404
 32,-0.06389433,0.02295205,0.06046999,0.05931570,-0.07797105,0.06939712
 ,-0.07975835,0.00404941,-0.00343194,0.00277915,0.07344989,0.07171204,-
 0.18808902,0.12610983,0.01062604,-0.01398254,0.01848520,-0.07609363,0.
 18999074,-0.07982829,0.12219104,-0.17092248,0.00235443,-0.00531268,0.0
 0661512,0.09007429,-0.13390170,0.17812559,-0.16175194,-0.06038697,-0.1
 8867732,0.00261940,-0.00118540,-0.00387475,-0.00129691,-0.00519836,-0.
 00963890,0.29748755,-0.06819201,-0.15742163,-0.11216903,-0.01626078,-0
 .00753076,-0.02715044,0.01155223,0.01011746,0.01938604,0.05164811,0.68
 127664,-0.18844152,-0.09895635,-0.36522948,-0.00341929,-0.00163025,-0.
 00080959,-0.01014497,-0.00897001,-0.01241301,0.28310532,0.07075648,0.6
 0644272,0.00252669,-0.01694081,-0.00426366,0.00714965,-0.00086350,-0.0
 0713949,-0.00499065,0.00022453,0.00357411,-0.04811765,-0.02968313,-0.0
 1220307,0.03818409,-0.00067400,-0.00735804,-0.00075712,-0.00071177,0.0
 0109137,-0.00089400,0.00008807,0.00134132,-0.00010613,-0.03008283,-0.3
 2843045,-0.04222278,0.03565477,0.35206520,-0.00475511,-0.02829419,-0.0
 0184714,-0.00714408,-0.00115085,-0.00067647,0.00357824,0.00012488,-0.0
 0105237,-0.01219099,-0.04154615,-0.05976144,0.02205573,0.05046195,0.06
 033115,-0.01050603,0.00922830,-0.02895007,-0.00520740,0.00139200,0.004
 00135,0.00796772,-0.00106115,-0.00686044,-0.08920283,0.03783216,-0.044
 08230,0.00449220,-0.00344889,0.00309664,0.29739033,0.00322882,0.015820
 33,0.00518219,-0.00101472,0.00087198,-0.00197359,-0.00235605,-0.000710
 56,-0.00360322,0.03964228,-0.19204863,0.07098151,0.01234632,-0.0167750
 3,0.02148944,0.02918095,0.62783053,-0.02876881,0.01533835,-0.04273360,
 0.00407406,0.00210059,-0.00076267,-0.00682132,-0.00141116,0.00053453,-
 0.04413699,0.06791725,-0.14060628,0.00261944,-0.00524929,0.00731737,0.
 28433985,0.03432505,0.60920772,-0.00090325,0.00096844,0.00125888,0.000
 17577,-0.00042170,-0.00015740,-0.00015920,-0.00015119,0.00018459,0.004
 46660,0.01213877,0.00120453,0.00172325,0.00142861,-0.00297503,-0.04771
 767,-0.03800260,-0.01715227,0.04176757,-0.00077376,0.00129005,-0.00139
 910,0.00065392,0.00069422,0.00109435,0.00007594,0.00052982,0.00010453,
 -0.00337413,-0.02195600,-0.00494162,0.00167039,-0.00102986,0.00296320,
 -0.03922135,-0.30861884,-0.05818646,0.04127952,0.32971560,0.00131152,0
 .00155016,0.00050917,-0.00018989,-0.00072650,-0.00002324,0.00017773,-0
 .00027997,0.00004378,0.00167321,0.02131922,0.00572678,-0.00298233,0.00
 255390,-0.00167059,-0.01711545,-0.05612332,-0.06418529,0.02714644,0.06
 067334,0.06911629,0.00539622,0.00346935,0.00532627,0.00011085,-0.00011
 961,0.00009504,-0.00003280,-0.00003858,-0.00018044,-0.00973305,0.00356
 797,-0.02399548,-0.00070608,-0.00001598,0.00075500,-0.15331741,-0.0411
 3754,-0.16953456,0.00025723,-0.00013994,-0.00703444,0.29670644,0.00442
 756,-0.00375789,0.00767478,0.00015469,0.00028476,0.00025497,0.00081573
 ,0.00085629,0.00135729,0.00615674,0.01862129,0.00999204,-0.00039342,0.
 00016053,-0.00070564,-0.01768802,-0.12990986,-0.02760230,-0.01682733,-
 0.00462729,-0.02821276,0.01253300,0.60415346,0.00529732,0.00605269,0.0
 1097260,0.00008675,-0.00020936,0.00021002,-0.00020626,-0.00008892,-0.0
 0027198,-0.02407370,0.00560968,-0.03654439,0.00076640,-0.00006669,0.00
 014762,-0.17024301,-0.06729855,-0.33859588,-0.00653028,0.00003630,-0.0
 0664067,0.28469613,0.00684005,0.61004399,-0.00018774,0.00073218,-0.000
 10678,0.00028194,-0.00007246,-0.00016990,-0.00117309,-0.00007079,0.000
 39426,0.00777851,-0.00187820,-0.00684058,-0.00019914,0.00007496,0.0001
 7630,-0.00220630,0.01441084,-0.01139520,-0.00520036,0.00019895,0.00310
 417,-0.06312107,0.06193280,-0.04463983,0.05848129,0.00009581,0.0001107
 1,0.00015469,0.00001216,-0.00001662,0.00003268,-0.00000354,-0.00000941
 ,-0.00004815,-0.00096806,0.00116999,-0.00131602,-0.00009892,0.00016122
 ,-0.00018153,-0.00244851,0.00495982,-0.00416583,-0.00035014,0.00191328
 ,-0.00086315,0.06229620,-0.24381660,0.11167988,-0.06381897,0.26183804,
 -0.00008755,0.00123195,-0.00032317,-0.00017246,-0.00011057,0.00009499,
 0.00039223,-0.00016198,-0.00073585,-0.00686808,-0.00285674,0.00031268,
 0.00018156,0.00011283,-0.00000068,-0.01088584,0.02437432,-0.01489645,0
 .00312076,0.00006637,-0.00175669,-0.04465081,0.11106470,-0.11679868,0.
 05754933,-0.11517171,0.12652582,-0.00018938,-0.00079725,-0.00070812,0.
 00007178,0.00004318,-0.00004549,0.00014318,0.00004913,0.00001777,-0.00
 271680,-0.00022285,0.00505611,0.00025230,0.00026124,0.00014046,-0.0028
 7896,-0.01411843,-0.01152027,0.00644260,-0.00040944,-0.00586202,-0.084
 02706,-0.04729919,-0.04088160,0.00457100,0.00759967,0.00200797,0.25751
 027,-0.00362830,-0.00201029,-0.00607404,-0.00002797,0.00010095,-0.0000
 4744,0.00001995,-0.00007172,0.00003992,0.00751172,-0.00443307,0.012677
 86,0.00012947,0.00028234,0.00021562,-0.02157177,0.00152968,-0.03643750
 ,0.00047945,0.00243414,0.00103757,-0.01816516,-0.20272318,-0.02640953,
 -0.00955699,-0.02409418,-0.01535234,-0.02143209,0.76722200,-0.00062258
 ,-0.00128154,-0.00077207,-0.00004334,0.00007301,0.00002231,0.00001865,
 0.00008932,0.00016068,0.00482243,-0.00041551,0.00247656,0.00014444,0.0
 0043868,0.00039592,-0.01129509,-0.02382020,-0.01422280,-0.00588888,-0.
 00046717,-0.00004206,-0.04176180,-0.07572874,-0.12744125,0.00252631,0.
 01369112,0.00711221,0.21743841,-0.05554954,0.49921317,-0.00009461,0.00
 001207,-0.00001384,0.00002458,-0.00001057,-0.00000780,-0.00000684,0.00
 000742,-0.00002204,-0.00006260,0.00002246,0.00024463,0.00004783,-0.000
 02500,0.00000995,0.00217521,-0.00182450,-0.00074030,-0.00026269,-0.000
 12031,-0.00040948,-0.00233359,0.00216948,-0.00936067,-0.00064721,-0.00
 013314,0.00112165,-0.11055795,0.02263863,-0.12065041,0.10657095,-0.000
 12121,0.00019226,-0.00021361,0.00003192,0.00004067,0.00005369,-0.00002
 666,0.00000295,-0.00004503,0.00020643,-0.00058277,0.00036079,-0.000097
 91,0.00009146,-0.00016722,-0.00068774,-0.00345427,-0.00097996,-0.00051
 571,-0.00037082,-0.00086237,-0.01505106,0.00223294,-0.02545108,-0.0003
 7349,0.00076610,-0.00069490,0.02297758,-0.06527715,0.03967035,-0.02413
 451,0.07660761,-0.00000982,0.00001200,-0.00010363,-0.00000909,-0.00001
 824,0.00001455,-0.00002101,0.00001266,-0.00002990,0.00023907,0.0000493
 6,0.00019571,0.00001215,-0.00004380,0.00006429,-0.00077465,-0.00290431
 ,0.00142148,-0.00039753,-0.00019302,-0.00068577,-0.00884040,0.00370050
 ,-0.01191991,0.00112891,-0.00028803,0.00061235,-0.12066065,0.03909656,
 -0.24513114,0.13687654,-0.04238040,0.25913576,-0.00017512,0.00052102,-
 0.00037185,-0.00011445,0.00010172,0.00019328,0.00007743,-0.00001389,-0
 .00012220,0.00074751,-0.00044721,0.00057734,-0.00087307,-0.00056006,-0
 .00113039,0.00015724,-0.00101791,0.00053596,-0.00029848,0.00021969,-0.
 00010588,0.00640896,-0.00923952,0.00396964,0.00168235,-0.00254525,-0.0
 0198180,-0.07781520,0.04925992,-0.04178077,0.00124406,0.01692410,-0.00
 713585,0.26798676,0.00196778,-0.00015424,0.00333686,-0.00011957,-0.000
 26579,-0.00020135,-0.00000267,0.00007391,-0.00000223,-0.00456147,0.004
 82156,-0.00785497,-0.00044272,-0.00215322,-0.00069030,0.01021447,0.001
 57506,0.01723959,0.00024080,-0.00024511,0.00040779,-0.01133840,-0.0471
 9844,-0.01764036,-0.00129341,-0.00212856,-0.00203766,0.05195180,-0.421
 10836,0.09903669,0.00181216,-0.00543691,0.00338777,-0.03334476,0.76114
 049,-0.00041556,0.00088772,-0.00069506,0.00019997,0.00017327,0.0001028
 4,-0.00012254,-0.00002122,-0.00005694,0.00070164,-0.00089021,0.0016291
 0,-0.00113394,-0.00088895,-0.00208804,0.00019661,-0.00177502,0.0002452
 5,-0.00010652,0.00037206,-0.00043142,0.00403305,-0.01408729,0.01148181
 ,-0.00201962,-0.00415682,-0.00039484,-0.04186210,0.09447977,-0.1277336
 5,-0.00667929,0.02896985,-0.00702486,0.23560033,-0.07553322,0.53052253
 ,-0.00005110,-0.00020325,0.00014937,-0.00019146,-0.00005481,0.00003888
 ,0.00006792,0.00000113,-0.00004057,-0.00081197,-0.00044929,-0.00124097
 ,0.00054298,-0.00162183,-0.00181536,0.00024314,0.00033734,0.00021761,0
 .00049366,-0.00003685,-0.00027857,-0.00440689,-0.00003548,0.00274423,-
 0.00008625,0.00004762,0.00011001,0.00248322,0.00038073,-0.00419406,0.0
 0809060,0.00031215,-0.00420374,-0.11044500,0.03638560,-0.11985598,0.10
 490171,-0.00013468,0.00086500,-0.00025823,0.00010859,0.00008503,0.0001
 7481,-0.00000114,-0.00002319,0.00000154,-0.00026516,-0.00201236,-0.000
 39022,-0.00131079,0.00010705,-0.00217251,0.00010367,-0.00056761,0.0001
 9592,-0.00010172,0.00016943,-0.00015740,-0.00033491,0.00159941,-0.0007
 9737,-0.00006377,0.00018646,-0.00011819,0.01661882,-0.00274354,0.02836
 554,0.00058204,-0.00524406,0.00146301,0.03546600,-0.07847763,0.0611918
 6,-0.03719666,0.08044320,0.00014730,-0.00037430,0.00012495,0.00003394,
 -0.00010180,-0.00015292,-0.00004050,0.00000539,0.00002315,-0.00124654,
 -0.00070192,-0.00215986,-0.00182476,-0.00269905,-0.00136318,0.00022467
 ,0.00059150,0.00047103,-0.00027662,-0.00004760,0.00019205,0.00275328,-
 0.00029048,-0.00135771,0.00011338,0.00007039,0.00003772,-0.00468465,0.
 00087707,-0.00300289,-0.00421190,0.00100615,0.00340782,-0.11982820,0.0
 6274859,-0.24503817,0.13945453,-0.06469779,0.26121514,-0.00004479,-0.0
 0053817,-0.00004178,0.00016948,-0.00003363,-0.00018541,-0.00011342,0.0
 0000659,0.00012892,0.00062140,0.00054067,0.00006302,-0.00005594,-0.000
 31659,0.00017935,-0.00133224,0.00036078,-0.00153282,-0.00090326,-0.000
 00867,0.00066345,0.00922963,0.00306572,-0.00311113,0.00014168,0.000564
 80,0.00015439,0.00672960,-0.00430445,0.00287764,-0.00526075,0.00149039
 ,0.00357063,-0.09720203,-0.04375867,-0.06009168,-0.00253287,-0.0119734
 7,-0.01004205,0.26592829,-0.00089613,0.00016108,-0.00152219,0.00007158
 ,0.00011265,0.00012622,0.00000495,-0.00004476,0.00000400,0.00167196,-0
 .00190429,0.00290525,-0.00026361,0.00051669,-0.00046658,-0.00402559,-0
 .00011800,-0.00682419,-0.00014587,0.00015391,-0.00029071,0.00717417,0.
 00911679,0.01220200,-0.00011279,-0.00051538,-0.00017415,-0.01187312,-0
 .06496296,-0.01798233,-0.00142521,0.00052841,-0.00265209,-0.04277762,-
 0.15983726,-0.06942723,0.00357518,0.00725844,0.00594207,-0.03272093,0.
 80039232,-0.00003097,-0.00091622,-0.00003524,-0.00018859,-0.00005188,-
 0.00003808,0.00012897,0.00000677,0.00002843,0.00002884,0.00099016,0.00
 059343,0.00017775,-0.00055627,0.00016148,-0.00140030,0.00060122,-0.002
 82185,0.00066759,-0.00005845,-0.00016313,-0.00323526,0.00524705,0.0053
 7744,0.00017486,0.00097291,0.00030702,0.00310631,-0.00516979,0.0105212
 0,0.00365872,0.00228356,-0.00127198,-0.06012132,-0.07108798,-0.1605514
 8,-0.01051180,-0.02037929,-0.01356619,0.22756542,-0.07558219,0.5195990
 0,0.00000591,-0.00005987,0.00000404,-0.00000283,-0.00001727,-0.0000237
 8,-0.00000213,0.00000379,-0.00000262,-0.00006068,0.00013500,-0.0000366
 1,0.00002761,-0.00009305,0.00003364,0.00005307,0.00006100,0.00000195,0
 .00002927,-0.00001814,0.00001146,-0.00003625,-0.00005849,0.00026928,0.
 00000358,-0.00005371,-0.00000377,-0.00097108,0.00103913,0.00107408,0.0
 0039518,-0.00060456,0.00030438,-0.00300193,0.00354828,-0.01049008,0.00
 225799,-0.00161617,-0.00222127,-0.11012429,0.03333493,-0.11657472,0.10
 503427,0.00001811,-0.00015737,0.00003555,-0.00002097,-0.00001492,-0.00
 003470,0.00000046,0.00000448,0.00000062,-0.00005205,0.00017461,-0.0000
 9464,0.00005798,-0.00014293,0.00010275,-0.00004887,0.00014586,-0.00008
 559,0.00002749,-0.00000396,0.00004735,0.00021266,0.00011832,0.00035055
 ,0.00001452,-0.00000914,0.00002506,-0.00090843,0.00152243,-0.00163288,
 0.00043930,-0.00033072,0.00076049,-0.01167664,0.00692161,-0.01988118,-
 0.00148373,-0.00315212,-0.00230776,0.03285716,-0.07570149,0.05664442,-
 0.03630311,0.08070234,0.00000169,-0.00009647,0.00001036,-0.00002367,-0
 .00002843,-0.00002769,-0.00000252,0.00000625,-0.00000510,-0.00003096,0
 .00022201,-0.00010058,0.00002907,-0.00015292,0.00006324,0.00000527,0.0
 0010040,0.00005672,0.00001009,-0.00002990,0.00004080,0.00026109,-0.000
 10846,0.00025098,-0.00000583,-0.00009044,-0.00000038,0.00113292,0.0016
 6401,0.00024346,0.00027284,-0.00100660,0.00071845,-0.01003010,0.005892
 16,-0.01402588,-0.00222527,-0.00253195,-0.00009154,-0.11656029,0.05745
 320,-0.24090931,0.13247965,-0.06306499,0.25359531,-0.00007342,0.000151
 99,-0.00018379,-0.00002615,0.00001376,0.00003118,-0.00002063,-0.000005
 56,-0.00003513,0.00012315,-0.00035790,0.00009002,-0.00005186,0.0000471
 7,0.00001701,-0.00013902,-0.00010394,-0.00014729,-0.00002166,0.0000126
 9,-0.00005608,0.00049259,0.00023575,0.00074986,-0.00013519,-0.00021605
 ,0.00001687,0.00062873,-0.00292004,-0.00305555,0.00025766,-0.00017071,
 0.00022380,0.00820226,-0.01095377,0.00350591,-0.00086073,-0.00047983,0
 .00123180,-0.07283798,0.04338924,-0.04149026,0.00269025,0.01654222,-0.
 00456743,0.24477549,0.00035231,0.00040501,0.00058515,0.00000516,-0.000
 02385,0.00000810,-0.00002711,0.00001718,-0.00004641,-0.00075741,0.0002
 9111,-0.00128866,0.00000892,0.00007247,0.00001102,0.00221659,-0.000460
 49,0.00376473,-0.00001752,-0.00005044,-0.00002779,-0.00301667,-0.00498
 099,-0.00495488,-0.00008983,-0.00038803,-0.00014462,-0.00154953,0.0150
 5368,-0.00300281,0.00008473,0.00004013,0.00014610,-0.00377428,-0.05600
 737,-0.00450601,0.00071989,0.00154927,0.00112413,0.05116872,-0.4923864
 6,0.10001286,0.00035440,-0.00612485,0.00093887,-0.00833519,0.82657207,
 -0.00018985,0.00024604,-0.00029638,0.00003144,0.00002267,0.00000772,-0
 .00003448,-0.00000993,-0.00005785,0.00010209,-0.00061236,0.00026768,0.
 00001817,0.00007577,-0.00003429,-0.00021740,-0.00016356,-0.00041324,-0
 .00005517,0.00002334,-0.00008285,0.00084812,0.00055095,0.00146451,0.00
 001306,-0.00035828,-0.00010837,-0.00309696,-0.00532286,-0.00259601,0.0
 0021608,-0.00028631,0.00050295,0.00328901,-0.01665972,0.01239781,0.001
 19555,-0.00090681,0.00047145,-0.04172529,0.08684346,-0.12236097,-0.004
 07837,0.02834222,-0.00266718,0.24341111,-0.03602702,0.51427973,-0.0000
 0591,-0.00000220,0.00002108,0.00003692,-0.00000165,-0.00002134,-0.0000
 1730,0.00000057,0.00001488,0.00002020,0.00002062,-0.00001601,0.0000334
 8,-0.00000123,-0.00002815,-0.00004099,0.00000387,0.00005661,-0.0000036
 9,0.00000009,0.00001054,0.00007043,-0.00003908,-0.00012756,0.00000678,
 0.00000976,-0.00000175,0.00017948,0.00012896,0.00013881,0.00024404,-0.
 00011641,-0.00019354,-0.00529141,-0.00093952,0.00370326,0.00040205,0.0
 0041945,0.00010203,0.00219250,0.00091309,-0.00396618,0.00852922,0.0003
 5391,-0.00435028,-0.10508566,0.03911627,-0.12306891,0.10102689,-0.0000
 0899,0.00004273,-0.00001706,0.00000499,0.00001263,0.00000956,-0.000003
 26,-0.00000456,-0.00000618,-0.00000065,-0.00010888,0.00000307,-0.00001
 359,0.00000919,-0.00002176,0.00001369,-0.00002621,0.00002172,-0.000008
 52,0.00001438,-0.00001516,-0.00004252,0.00004200,-0.00006882,-0.000002
 67,0.00001993,-0.00000489,-0.00012017,-0.00016066,-0.00019570,-0.00014
 112,0.00016839,-0.00023309,0.00110140,0.00191160,0.00158130,-0.0006067
 2,-0.00018723,-0.00101133,0.01626602,-0.00500153,0.02782338,0.00018205
 ,-0.00503171,0.00079534,0.03731711,-0.08276341,0.06467275,-0.04383247,
 0.08208305,0.00002129,-0.00000556,0.00001788,-0.00002154,-0.00000168,0
 .00001313,0.00001499,0.00000031,-0.00000073,-0.00001536,0.00003908,0.0
 0000210,-0.00002777,-0.00000084,0.00000314,0.00005631,0.00000510,0.000
 02067,0.00001080,-0.00000057,0.00000839,-0.00012746,-0.00006300,-0.000
 06739,-0.00000138,0.00001616,0.00000482,0.00014634,0.00022604,0.000336
 08,-0.00019280,-0.00019126,0.00003985,0.00364160,-0.00187366,-0.001241
 00,0.00013303,0.00072582,0.00053757,-0.00443002,0.00183336,-0.00303558
 ,-0.00434509,0.00108626,0.00370437,-0.12301455,0.06771845,-0.24337374,
 0.13547438,-0.07602314,0.25341432,-0.00000668,-0.00001677,0.00000314,-
 0.00002099,-0.00000511,0.00000851,0.00002847,0.00000191,-0.00001262,-0
 .00010987,0.00003338,0.00007983,0.00001432,-0.00000357,-0.00000321,0.0
 0006993,0.00000348,-0.00009564,0.00011432,-0.00000861,-0.00006436,-0.0
 0095816,0.00008905,0.00059444,0.00000922,0.00001025,-0.00000269,0.0001
 4427,0.00001880,0.00025170,0.00017613,-0.00004263,-0.00010921,0.008710
 11,0.00063406,-0.00516346,-0.00009700,0.00017975,0.00031554,0.00539500
 ,0.00410577,0.00201093,-0.00482716,-0.00002999,0.00360373,-0.07791781,
 -0.07645946,-0.07665820,-0.00229704,-0.01010457,-0.00732278,0.07157294
 ,-0.00001659,0.00002728,-0.00002915,-0.00000183,-0.00000440,-0.0000037
 4,-0.00000845,0.00000161,-0.00001327,-0.00000475,-0.00004385,-0.000011
 47,0.00001601,-0.00000929,0.00002787,0.00002006,-0.00004376,0.00003909
 ,-0.00002078,-0.00001254,-0.00003019,0.00014700,-0.00017152,0.00021442
 ,-0.00003088,-0.00014762,-0.00004749,-0.00077093,-0.00056012,-0.001288
 28,0.00004608,0.00002578,0.00008452,0.00180328,-0.00343134,0.00351130,
 -0.00007103,0.00014443,-0.00013326,-0.01266627,-0.01776816,-0.02078025
 ,0.00016579,0.00107955,0.00003791,-0.07416693,-0.20081503,-0.12043034,
 0.00396594,0.00898029,0.00650913,0.08159426,0.21274868,0.00000313,-0.0
 0002947,-0.00000204,0.00000841,-0.00000930,-0.00001141,-0.00001231,0.0
 0000426,0.00001492,0.00008099,0.00005307,-0.00002214,-0.00000380,-0.00
 000527,0.00001000,-0.00009614,0.00001104,-0.00003671,-0.00006399,-0.00
 000959,0.00004445,0.00059269,0.00011633,-0.00031108,-0.00000145,0.0000
 2213,0.00000750,0.00027556,0.00004861,0.00046027,-0.00011189,-0.000065
 65,0.00005398,-0.00519878,0.00153199,0.00290199,0.00032311,0.00029126,
 0.00025158,0.00251765,0.00761211,0.00816581,0.00359782,-0.00029353,-0.
 00085604,-0.07672746,-0.12431122,-0.15740096,-0.00774787,-0.01730998,-
 0.01038390,0.08256434,0.13234321,0.15711378\\0.00001178,0.00000776,0.0
 0001970,-0.00000571,0.00000670,-0.00000986,0.00000056,0.00000009,0.000
 00094,0.00001221,0.00002951,0.00001977,0.00000937,-0.00006110,0.000017
 71,-0.00004785,-0.00006284,-0.00007910,0.00001402,0.00001903,0.0000231
 6,-0.00000167,0.00011505,-0.00000631,0.00000208,-0.00001023,0.00000383
 ,0.00003026,-0.00005275,0.00005281,-0.00001134,-0.00000651,-0.00001901
 ,-0.00004764,0.00001930,-0.00008123,0.00001984,-0.00001639,0.00003407,
 0.00000874,-0.00000592,0.00001498,0.00000082,0.00000861,0.00000112,-0.
 00000037,0.00000443,-0.00000077,0.00000410,0.00000793,0.00000669,0.000
 00082,-0.00000267,0.00000148\\\@


 IN THE WOODS WE RETURN TO REASON AND FAITH.

                                 -- EMERSON
 Job cpu time:  0 days  0 hours  2 minutes  6.0 seconds.
 File lengths (MBytes):  RWF=     49 Int=      0 D2E=      0 Chk=      3 Scr=      1
 Normal termination of Gaussian 09 at Tue Mar  2 15:38:30 2021.
