 Entering Gaussian System, Link 0=g09
 Input=oct01.com
 Output=oct01.log
 Initial command:
 /home/student/g09/l1.exe /home/student/singh/other/Gau-22964.inp -scrdir=/home/student/singh/other/
 Entering Link 1 = /home/student/g09/l1.exe PID=     22966.
  
 Copyright (c) 1988,1990,1992,1993,1995,1998,2003,2009,2011,
            Gaussian, Inc.  All Rights Reserved.
  
 This is part of the Gaussian(R) 09 program.  It is based on
 the Gaussian(R) 03 system (copyright 2003, Gaussian, Inc.),
 the Gaussian(R) 98 system (copyright 1998, Gaussian, Inc.),
 the Gaussian(R) 94 system (copyright 1995, Gaussian, Inc.),
 the Gaussian 92(TM) system (copyright 1992, Gaussian, Inc.),
 the Gaussian 90(TM) system (copyright 1990, Gaussian, Inc.),
 the Gaussian 88(TM) system (copyright 1988, Gaussian, Inc.),
 the Gaussian 86(TM) system (copyright 1986, Carnegie Mellon
 University), and the Gaussian 82(TM) system (copyright 1983,
 Carnegie Mellon University). Gaussian is a federally registered
 trademark of Gaussian, Inc.
  
 This software contains proprietary and confidential information,
 including trade secrets, belonging to Gaussian, Inc.
  
 This software is provided under written license and may be
 used, copied, transmitted, or stored only in accord with that
 written license.
  
 The following legend is applicable only to US Government
 contracts under FAR:
  
                    RESTRICTED RIGHTS LEGEND
  
 Use, reproduction and disclosure by the US Government is
 subject to restrictions as set forth in subparagraphs (a)
 and (c) of the Commercial Computer Software - Restricted
 Rights clause in FAR 52.227-19.
  
 Gaussian, Inc.
 340 Quinnipiac St., Bldg. 40, Wallingford CT 06492
  
  
 ---------------------------------------------------------------
 Warning -- This program may not be used in any manner that
 competes with the business of Gaussian, Inc. or will provide
 assistance to any competitor of Gaussian, Inc.  The licensee
 of this program is prohibited from giving any competitor of
 Gaussian, Inc. access to this program.  By using this program,
 the user acknowledges that Gaussian, Inc. is engaged in the
 business of creating and licensing software in the field of
 computational chemistry and represents and warrants to the
 licensee that it is not a competitor of Gaussian, Inc. and that
 it will not use this program in any manner prohibited above.
 ---------------------------------------------------------------
  

 Cite this work as:
 Gaussian 09, Revision C.01,
 M. J. Frisch, G. W. Trucks, H. B. Schlegel, G. E. Scuseria, 
 M. A. Robb, J. R. Cheeseman, G. Scalmani, V. Barone, B. Mennucci, 
 G. A. Petersson, H. Nakatsuji, M. Caricato, X. Li, H. P. Hratchian, 
 A. F. Izmaylov, J. Bloino, G. Zheng, J. L. Sonnenberg, M. Hada, 
 M. Ehara, K. Toyota, R. Fukuda, J. Hasegawa, M. Ishida, T. Nakajima, 
 Y. Honda, O. Kitao, H. Nakai, T. Vreven, J. A. Montgomery, Jr., 
 J. E. Peralta, F. Ogliaro, M. Bearpark, J. J. Heyd, E. Brothers, 
 K. N. Kudin, V. N. Staroverov, T. Keith, R. Kobayashi, J. Normand, 
 K. Raghavachari, A. Rendell, J. C. Burant, S. S. Iyengar, J. Tomasi, 
 M. Cossi, N. Rega, J. M. Millam, M. Klene, J. E. Knox, J. B. Cross, 
 V. Bakken, C. Adamo, J. Jaramillo, R. Gomperts, R. E. Stratmann, 
 O. Yazyev, A. J. Austin, R. Cammi, C. Pomelli, J. W. Ochterski, 
 R. L. Martin, K. Morokuma, V. G. Zakrzewski, G. A. Voth, 
 P. Salvador, J. J. Dannenberg, S. Dapprich, A. D. Daniels, 
 O. Farkas, J. B. Foresman, J. V. Ortiz, J. Cioslowski, 
 and D. J. Fox, Gaussian, Inc., Wallingford CT, 2010.
 
 ******************************************
 Gaussian 09:  EM64L-G09RevC.01 23-Sep-2011
                 2-Mar-2021 
 ******************************************
 %chk=oct01.chk
 -----------------------------------------
 # opt freq b3lyp/6-31g* geom=connectivity
 -----------------------------------------
 1/14=-1,18=20,19=15,26=3,38=1,57=2/1,3;
 2/9=110,12=2,17=6,18=5,40=1/2;
 3/5=1,6=6,7=1,11=2,16=1,25=1,30=1,71=1,74=-5/1,2,3;
 4//1;
 5/5=2,38=5/2;
 6/7=2,8=2,9=2,10=2,28=1/1;
 7//1,2,3,16;
 1/14=-1,18=20,19=15/3(2);
 2/9=110/2;
 99//99;
 2/9=110/2;
 3/5=1,6=6,7=1,11=2,16=1,25=1,30=1,71=1,74=-5/1,2,3;
 4/5=5,16=3/1;
 5/5=2,38=5/2;
 7//1,2,3,16;
 1/14=-1,18=20,19=15/3(-5);
 2/9=110/2;
 6/7=2,8=2,9=2,10=2,19=2,28=1/1;
 99/9=1/99;
 -------------------
 Title Card Required
 -------------------
 Charge =  0 Multiplicity = 1
 Symbolic Z-Matrix:
 C                    -6.01028   2.10207   3.56431 
 H                    -5.46617   2.09561   4.48562 
 H                    -7.08013   2.11479   3.57703 
 C                    -5.34906   2.09422   2.38139 
 H                    -5.89317   2.10068   1.46009 
 C                    -3.80928   2.07592   2.3631 
 H                    -3.26517   2.06945   3.2844 
 C                    -3.14104   2.06798   1.18413 
 H                    -3.67967   2.07438   0.25961 
 C                    -1.60118   2.04968   1.17498 
 H                    -1.06255   2.04328   2.0995 
 C                    -0.92595   2.04165   0. 
 H                    -1.45908   2.04799  -0.9277 
 C                     0.61394   2.02335   0. 
 H                     1.14706   2.01702  -0.9277 
 C                     1.29613   2.01525   1.17094 
 H                     0.76853   2.02152   2.1018 
 H                     2.36604   2.00253   1.16459 
 

 GradGradGradGradGradGradGradGradGradGradGradGradGradGradGradGradGradGrad
 Berny optimization.
 Initialization pass.
                           ----------------------------
                           !    Initial Parameters    !
                           ! (Angstroms and Degrees)  !
 --------------------------                            --------------------------
 ! Name  Definition              Value          Derivative Info.                !
 --------------------------------------------------------------------------------
 ! R1    R(1,2)                  1.07           estimate D2E/DX2                !
 ! R2    R(1,3)                  1.07           estimate D2E/DX2                !
 ! R3    R(1,4)                  1.3552         estimate D2E/DX2                !
 ! R4    R(4,5)                  1.07           estimate D2E/DX2                !
 ! R5    R(4,6)                  1.54           estimate D2E/DX2                !
 ! R6    R(6,7)                  1.07           estimate D2E/DX2                !
 ! R7    R(6,8)                  1.3552         estimate D2E/DX2                !
 ! R8    R(8,9)                  1.07           estimate D2E/DX2                !
 ! R9    R(8,10)                 1.54           estimate D2E/DX2                !
 ! R10   R(10,11)                1.07           estimate D2E/DX2                !
 ! R11   R(10,12)                1.3552         estimate D2E/DX2                !
 ! R12   R(12,13)                1.07           estimate D2E/DX2                !
 ! R13   R(12,14)                1.54           estimate D2E/DX2                !
 ! R14   R(14,15)                1.07           estimate D2E/DX2                !
 ! R15   R(14,16)                1.3552         estimate D2E/DX2                !
 ! R16   R(16,17)                1.07           estimate D2E/DX2                !
 ! R17   R(16,18)                1.07           estimate D2E/DX2                !
 ! A1    A(2,1,3)              119.8865         estimate D2E/DX2                !
 ! A2    A(2,1,4)              120.2269         estimate D2E/DX2                !
 ! A3    A(3,1,4)              119.8865         estimate D2E/DX2                !
 ! A4    A(1,4,5)              120.2269         estimate D2E/DX2                !
 ! A5    A(1,4,6)              119.8865         estimate D2E/DX2                !
 ! A6    A(5,4,6)              119.8865         estimate D2E/DX2                !
 ! A7    A(4,6,7)              119.8865         estimate D2E/DX2                !
 ! A8    A(4,6,8)              120.2269         estimate D2E/DX2                !
 ! A9    A(7,6,8)              119.8865         estimate D2E/DX2                !
 ! A10   A(6,8,9)              120.2269         estimate D2E/DX2                !
 ! A11   A(6,8,10)             119.8865         estimate D2E/DX2                !
 ! A12   A(9,8,10)             119.8865         estimate D2E/DX2                !
 ! A13   A(8,10,11)            119.8865         estimate D2E/DX2                !
 ! A14   A(8,10,12)            120.2269         estimate D2E/DX2                !
 ! A15   A(11,10,12)           119.8865         estimate D2E/DX2                !
 ! A16   A(10,12,13)           120.2269         estimate D2E/DX2                !
 ! A17   A(10,12,14)           119.8865         estimate D2E/DX2                !
 ! A18   A(13,12,14)           119.8865         estimate D2E/DX2                !
 ! A19   A(12,14,15)           119.8865         estimate D2E/DX2                !
 ! A20   A(12,14,16)           120.2269         estimate D2E/DX2                !
 ! A21   A(15,14,16)           119.8865         estimate D2E/DX2                !
 ! A22   A(14,16,17)           120.2269         estimate D2E/DX2                !
 ! A23   A(14,16,18)           119.8865         estimate D2E/DX2                !
 ! A24   A(17,16,18)           119.8865         estimate D2E/DX2                !
 ! D1    D(2,1,4,5)            180.0            estimate D2E/DX2                !
 ! D2    D(2,1,4,6)              0.0            estimate D2E/DX2                !
 ! D3    D(3,1,4,5)              0.0            estimate D2E/DX2                !
 ! D4    D(3,1,4,6)            180.0            estimate D2E/DX2                !
 ! D5    D(1,4,6,7)              0.0            estimate D2E/DX2                !
 ! D6    D(1,4,6,8)            180.0            estimate D2E/DX2                !
 ! D7    D(5,4,6,7)            180.0            estimate D2E/DX2                !
 ! D8    D(5,4,6,8)              0.0            estimate D2E/DX2                !
 ! D9    D(4,6,8,9)              0.0            estimate D2E/DX2                !
 ! D10   D(4,6,8,10)           180.0            estimate D2E/DX2                !
 ! D11   D(7,6,8,9)            180.0            estimate D2E/DX2                !
 ! D12   D(7,6,8,10)             0.0            estimate D2E/DX2                !
 ! D13   D(6,8,10,11)            0.0            estimate D2E/DX2                !
 ! D14   D(6,8,10,12)          180.0            estimate D2E/DX2                !
 ! D15   D(9,8,10,11)          180.0            estimate D2E/DX2                !
 ! D16   D(9,8,10,12)            0.0            estimate D2E/DX2                !
 ! D17   D(8,10,12,13)           0.0            estimate D2E/DX2                !
 ! D18   D(8,10,12,14)         180.0            estimate D2E/DX2                !
 ! D19   D(11,10,12,13)        180.0            estimate D2E/DX2                !
 ! D20   D(11,10,12,14)          0.0            estimate D2E/DX2                !
 ! D21   D(10,12,14,15)        180.0            estimate D2E/DX2                !
 ! D22   D(10,12,14,16)          0.0            estimate D2E/DX2                !
 ! D23   D(13,12,14,15)          0.0            estimate D2E/DX2                !
 ! D24   D(13,12,14,16)        180.0            estimate D2E/DX2                !
 ! D25   D(12,14,16,17)          0.0            estimate D2E/DX2                !
 ! D26   D(12,14,16,18)       -180.0            estimate D2E/DX2                !
 ! D27   D(15,14,16,17)       -180.0            estimate D2E/DX2                !
 ! D28   D(15,14,16,18)          0.0            estimate D2E/DX2                !
 --------------------------------------------------------------------------------
 Trust Radius=3.00D-01 FncErr=1.00D-07 GrdErr=1.00D-06
 Number of steps in this run=     79 maximum allowed number of steps=    108.
 GradGradGradGradGradGradGradGradGradGradGradGradGradGradGradGradGradGrad

                          Input orientation:                          
 ---------------------------------------------------------------------
 Center     Atomic      Atomic             Coordinates (Angstroms)
 Number     Number       Type             X           Y           Z
 ---------------------------------------------------------------------
      1          6           0       -6.010279    2.102073    3.564313
      2          1           0       -5.466167    2.095607    4.485617
      3          1           0       -7.080127    2.114787    3.577028
      4          6           0       -5.349060    2.094216    2.381395
      5          1           0       -5.893172    2.100682    1.460091
      6          6           0       -3.809278    2.075918    2.363096
      7          1           0       -3.265167    2.069452    3.284400
      8          6           0       -3.141044    2.067977    1.184127
      9          1           0       -3.679672    2.074378    0.259606
     10          6           0       -1.601180    2.049678    1.174977
     11          1           0       -1.062551    2.043277    2.099498
     12          6           0       -0.925953    2.041654    0.000000
     13          1           0       -1.459079    2.047989   -0.927705
     14          6           0        0.613938    2.023355    0.000000
     15          1           0        1.147065    2.017020   -0.927705
     16          6           0        1.296134    2.015248    1.170944
     17          1           0        0.768528    2.021518    2.101801
     18          1           0        2.366039    2.002534    1.164587
 ---------------------------------------------------------------------
                    Distance matrix (angstroms):
                    1          2          3          4          5
     1  C    0.000000
     2  H    1.070000   0.000000
     3  H    1.070000   1.852234   0.000000
     4  C    1.355200   2.107479   2.103938   0.000000
     5  H    2.107479   3.055514   2.427032   1.070000   0.000000
     6  C    2.507591   2.692725   3.489068   1.540000   2.271265
     7  H    2.759539   2.507591   3.826436   2.271265   3.199295
     8  C    3.728131   4.038168   4.609181   2.511867   2.766123
     9  H    4.043956   4.588157   4.750791   2.699859   2.518221
    10  C    5.015160   5.089261   5.982721   3.937517   4.301754
    11  H    5.160343   5.008806   6.196727   4.296070   4.873092
    12  C    6.209537   6.382572   7.118591   5.023712   5.177703
    13  H    6.394886   6.735212   7.203698   5.107273   5.036420
    14  C    7.522684   7.556035   8.485407   6.421325   6.669357
    15  H    8.450622   8.546641   9.380238   7.290798   7.434614
    16  C    7.688915   7.531416   8.715555   6.755000   7.195625
    17  H    6.935247   6.675290   7.986638   6.124406   6.693004
    18  H    8.713856   8.507724   9.750002   7.811004   8.265078
                    6          7          8          9         10
     6  C    0.000000
     7  H    1.070000   0.000000
     8  C    1.355200   2.103938   0.000000
     9  H    2.107479   3.053066   1.070000   0.000000
    10  C    2.507591   2.686802   1.540000   2.271265   0.000000
    11  H    2.759539   2.501238   2.271265   3.199295   1.070000
    12  C    3.728131   4.032366   2.511867   2.766123   1.355200
    13  H    4.043956   4.583038   2.699859   2.518221   2.107479
    14  C    5.015160   5.082997   3.937517   4.301754   2.507591
    15  H    5.949636   6.100193   4.780199   4.970954   3.460518
    16  C    5.243103   5.027434   4.437510   5.058920   2.897521
    17  H    4.585580   4.203752   4.016097   4.814869   2.544663
    18  H    6.290974   6.017355   5.507506   6.113491   3.967512
                   11         12         13         14         15
    11  H    0.000000
    12  C    2.103938   0.000000
    13  H    3.053066   1.070000   0.000000
    14  C    2.686802   1.540000   2.271265   0.000000
    15  H    3.747939   2.271265   2.606327   1.070000   0.000000
    16  C    2.535033   2.511867   3.463611   1.355200   2.103938
    17  H    1.831210   2.699859   3.760431   2.107479   3.053066
    18  H    3.554005   3.492135   4.360193   2.103938   2.421527
                   16         17         18
    16  C    0.000000
    17  H    1.070000   0.000000
    18  H    1.070000   1.852234   0.000000
 Stoichiometry    C8H10
 Framework group  CS[SG(C8H10)]
 Deg. of freedom    33
 Full point group                 CS      NOp   2
 Largest Abelian subgroup         CS      NOp   2
 Largest concise Abelian subgroup C1      NOp   1
                         Standard orientation:                         
 ---------------------------------------------------------------------
 Center     Atomic      Atomic             Coordinates (Angstroms)
 Number     Number       Type             X           Y           Z
 ---------------------------------------------------------------------
      1          6           0        0.081458    4.183242    0.000000
      2          1           0        1.150606    4.140570    0.000000
      3          1           0       -0.414285    5.131471    0.000000
      4          6           0       -0.646940    3.040437    0.000000
      5          1           0       -1.716089    3.083108    0.000000
      6          6           0        0.066559    1.675695    0.000000
      7          1           0        1.135708    1.633024    0.000000
      8          6           0       -0.655036    0.528582    0.000000
      9          1           0       -1.724419    0.564901    0.000000
     10          6           0        0.066559   -0.831896    0.000000
     11          1           0        1.135942   -0.868214    0.000000
     12          6           0       -0.648208   -1.983275    0.000000
     13          1           0       -1.717788   -1.953311    0.000000
     14          6           0        0.081458   -3.339442    0.000000
     15          1           0       -0.482888   -4.248516    0.000000
     16          6           0        1.435877   -3.385441    0.000000
     17          1           0        2.005613   -2.479737    0.000000
     18          1           0        1.937245   -4.330708    0.000000
 ---------------------------------------------------------------------
 Rotational constants (GHZ):      9.6010811      0.6334530      0.5942463
 Standard basis: 6-31G(d) (6D, 7F)
 There are   108 symmetry adapted basis functions of A'  symmetry.
 There are    32 symmetry adapted basis functions of A"  symmetry.
 Integral buffers will be    131072 words long.
 Raffenetti 2 integral format.
 Two-electron integral symmetry is turned on.
   140 basis functions,   264 primitive gaussians,   140 cartesian basis functions
    29 alpha electrons       29 beta electrons
       nuclear repulsion energy       297.6447836272 Hartrees.
 NAtoms=   18 NActive=   18 NUniq=   18 SFac= 1.00D+00 NAtFMM=   60 NAOKFM=F Big=F
 One-electron integrals computed using PRISM.
 NBasis=   140 RedAO= T  NBF=   108    32
 NBsUse=   140 1.00D-06 NBFU=   108    32
 Harris functional with IExCor=  402 diagonalized for initial guess.
 ExpMin= 1.61D-01 ExpMax= 3.05D+03 ExpMxC= 4.57D+02 IAcc=1 IRadAn=         1 AccDes= 0.00D+00
 HarFok:  IExCor=  402 AccDes= 0.00D+00 IRadAn=         1 IDoV= 1
 ScaDFX=  1.000000  1.000000  1.000000  1.000000
 FoFCou: FMM=F IPFlag=           0 FMFlag=      100000 FMFlg1=           0
         NFxFlg=           0 DoJE=T BraDBF=F KetDBF=T FulRan=T
         Omega=  0.000000  0.000000  1.000000  0.000000  0.000000 ICntrl=     500 IOpCl=  0
         NMat0=    1 NMatS0=    1 NMatT0=    0 NMatD0=    1 NMtDS0=    0 NMtDT0=    0
         I1Cent=           4 NGrid=           0.
 Petite list used in FoFCou.
 Initial guess orbital symmetries:
       Occupied  (A') (A') (A') (A') (A') (A') (A') (A') (A') (A')
                 (A') (A') (A') (A') (A') (A') (A') (A') (A') (A')
                 (A') (A') (A') (A') (A') (A") (A") (A") (A")
       Virtual   (A") (A") (A") (A") (A') (A') (A') (A') (A') (A')
                 (A') (A') (A') (A') (A') (A') (A') (A') (A') (A')
                 (A') (A') (A') (A") (A") (A') (A') (A") (A') (A')
                 (A") (A') (A") (A') (A') (A') (A") (A") (A") (A')
                 (A') (A') (A') (A') (A') (A') (A') (A') (A') (A')
                 (A') (A') (A') (A') (A') (A') (A') (A') (A') (A')
                 (A") (A") (A') (A") (A") (A") (A') (A") (A') (A")
                 (A") (A") (A') (A') (A') (A') (A') (A') (A") (A')
                 (A') (A") (A') (A') (A') (A") (A') (A') (A') (A")
                 (A') (A") (A") (A") (A') (A') (A') (A') (A') (A')
                 (A') (A') (A') (A') (A') (A') (A') (A') (A') (A')
                 (A')
 The electronic state of the initial guess is 1-A'.
 Requested convergence on RMS density matrix=1.00D-08 within 128 cycles.
 Requested convergence on MAX density matrix=1.00D-06.
 Requested convergence on             energy=1.00D-06.
 No special actions if energy rises.
 Integral accuracy reduced to 1.0D-05 until final iterations.
 Initial convergence to 1.0D-05 achieved.  Increase integral accuracy.
 SCF Done:  E(RB3LYP) =  -310.776879174     A.U. after   14 cycles
             Convg  =    0.4077D-08             -V/T =  2.0108

 **********************************************************************

            Population analysis using the SCF density.

 **********************************************************************

 Orbital symmetries:
       Occupied  (A') (A') (A') (A') (A') (A') (A') (A') (A') (A')
                 (A') (A') (A') (A') (A') (A') (A') (A') (A') (A')
                 (A') (A') (A') (A') (A') (A") (A") (A") (A")
       Virtual   (A") (A") (A") (A') (A") (A') (A') (A') (A') (A')
                 (A') (A') (A') (A') (A') (A') (A') (A') (A') (A')
                 (A') (A') (A') (A") (A") (A') (A') (A") (A') (A')
                 (A") (A") (A') (A') (A") (A') (A') (A") (A") (A')
                 (A') (A') (A') (A') (A') (A') (A') (A') (A') (A')
                 (A') (A') (A') (A') (A') (A') (A') (A') (A') (A')
                 (A') (A") (A") (A") (A') (A") (A") (A') (A") (A")
                 (A") (A") (A') (A') (A') (A') (A') (A') (A") (A')
                 (A') (A") (A') (A') (A") (A') (A') (A') (A') (A")
                 (A') (A") (A") (A") (A') (A') (A') (A') (A') (A')
                 (A') (A') (A') (A') (A') (A') (A') (A') (A') (A')
                 (A')
 The electronic state is 1-A'.
 Alpha  occ. eigenvalues --  -10.19748 -10.19672 -10.19653 -10.19532 -10.19491
 Alpha  occ. eigenvalues --  -10.19388 -10.17982 -10.17904  -0.81071  -0.78658
 Alpha  occ. eigenvalues --   -0.74664  -0.70448  -0.61784  -0.57939  -0.56274
 Alpha  occ. eigenvalues --   -0.53267  -0.48565  -0.46716  -0.43327  -0.43056
 Alpha  occ. eigenvalues --   -0.39391  -0.39047  -0.36729  -0.36208  -0.33274
 Alpha  occ. eigenvalues --   -0.33226  -0.30194  -0.25397  -0.19994
 Alpha virt. eigenvalues --   -0.04851   0.00955   0.06863   0.09806   0.09812
 Alpha virt. eigenvalues --    0.12022   0.12853   0.12981   0.14722   0.16238
 Alpha virt. eigenvalues --    0.18239   0.19556   0.19649   0.22460   0.27229
 Alpha virt. eigenvalues --    0.29976   0.32717   0.34457   0.36049   0.39737
 Alpha virt. eigenvalues --    0.43763   0.47286   0.50644   0.52372   0.54189
 Alpha virt. eigenvalues --    0.55617   0.57313   0.57627   0.60073   0.60920
 Alpha virt. eigenvalues --    0.61158   0.62560   0.63007   0.65182   0.65534
 Alpha virt. eigenvalues --    0.67465   0.68382   0.70720   0.72404   0.82936
 Alpha virt. eigenvalues --    0.84932   0.85751   0.87180   0.88583   0.89028
 Alpha virt. eigenvalues --    0.90021   0.91951   0.92439   0.94373   0.96460
 Alpha virt. eigenvalues --    0.99813   1.02112   1.04837   1.05747   1.08982
 Alpha virt. eigenvalues --    1.10371   1.13461   1.20900   1.25010   1.29781
 Alpha virt. eigenvalues --    1.32094   1.34198   1.34817   1.37414   1.44764
 Alpha virt. eigenvalues --    1.45563   1.48305   1.50760   1.53208   1.61816
 Alpha virt. eigenvalues --    1.69664   1.72427   1.74465   1.76127   1.77950
 Alpha virt. eigenvalues --    1.93775   1.95318   1.96631   1.96761   2.01895
 Alpha virt. eigenvalues --    2.04050   2.10677   2.12984   2.16579   2.20728
 Alpha virt. eigenvalues --    2.21146   2.23502   2.28738   2.30740   2.32096
 Alpha virt. eigenvalues --    2.39577   2.40173   2.41931   2.47781   2.56323
 Alpha virt. eigenvalues --    2.57582   2.68798   2.73775   2.81238   2.85577
 Alpha virt. eigenvalues --    2.91221   2.99165   3.04591   4.05288   4.06649
 Alpha virt. eigenvalues --    4.10143   4.16629   4.18629   4.31235   4.42447
 Alpha virt. eigenvalues --    4.51040
          Condensed to atoms (all electrons):
              1          2          3          4          5          6
     1  C    5.057006   0.372685   0.365421   0.629547  -0.051664  -0.026793
     2  H    0.372685   0.561298  -0.040499  -0.036017   0.005718  -0.011425
     3  H    0.365421  -0.040499   0.559720  -0.024310  -0.006575   0.003901
     4  C    0.629547  -0.036017  -0.024310   4.796641   0.368721   0.409112
     5  H   -0.051664   0.005718  -0.006575   0.368721   0.591814  -0.044721
     6  C   -0.026793  -0.011425   0.003901   0.409112  -0.044721   4.911858
     7  H   -0.003493   0.004403  -0.000012  -0.043544   0.003701   0.364925
     8  C    0.001912   0.000460  -0.000168  -0.017324  -0.003766   0.594493
     9  H    0.000370   0.000014  -0.000006  -0.007909   0.003912  -0.053390
    10  C   -0.000182  -0.000003   0.000002   0.003213   0.000134  -0.015880
    11  H   -0.000002   0.000002   0.000000   0.000128   0.000005  -0.003735
    12  C    0.000003   0.000000   0.000000  -0.000179  -0.000003   0.002164
    13  H    0.000000   0.000000   0.000000  -0.000005   0.000001   0.000435
    14  C    0.000000   0.000000   0.000000   0.000001   0.000000  -0.000173
    15  H    0.000000   0.000000   0.000000   0.000000   0.000000   0.000001
    16  C    0.000000   0.000000   0.000000   0.000000   0.000000   0.000013
    17  H    0.000000   0.000000   0.000000   0.000000   0.000000  -0.000016
    18  H    0.000000   0.000000   0.000000   0.000000   0.000000   0.000000
              7          8          9         10         11         12
     1  C   -0.003493   0.001912   0.000370  -0.000182  -0.000002   0.000003
     2  H    0.004403   0.000460   0.000014  -0.000003   0.000002   0.000000
     3  H   -0.000012  -0.000168  -0.000006   0.000002   0.000000   0.000000
     4  C   -0.043544  -0.017324  -0.007909   0.003213   0.000128  -0.000179
     5  H    0.003701  -0.003766   0.003912   0.000134   0.000005  -0.000003
     6  C    0.364925   0.594493  -0.053390  -0.015880  -0.003735   0.002164
     7  H    0.592784  -0.051487   0.005997  -0.008730   0.004118   0.000425
     8  C   -0.051487   4.904560   0.366515   0.395833  -0.043081  -0.018110
     9  H    0.005997   0.366515   0.593905  -0.044598   0.003648  -0.003573
    10  C   -0.008730   0.395833  -0.044598   4.901702   0.356642   0.611782
    11  H    0.004118  -0.043081   0.003648   0.356642   0.600601  -0.049756
    12  C    0.000425  -0.018110  -0.003573   0.611782  -0.049756   4.932380
    13  H    0.000014  -0.008340   0.003745  -0.055824   0.006288   0.364825
    14  C   -0.000003   0.003347   0.000058  -0.022296  -0.013698   0.401994
    15  H    0.000000  -0.000089   0.000000   0.004268   0.000012  -0.039509
    16  C   -0.000005   0.000536  -0.000002  -0.022112   0.003905  -0.038473
    17  H   -0.000001   0.000214   0.000002   0.004992   0.005305  -0.018558
    18  H    0.000000  -0.000009   0.000000   0.000276  -0.000028   0.004445
             13         14         15         16         17         18
     1  C    0.000000   0.000000   0.000000   0.000000   0.000000   0.000000
     2  H    0.000000   0.000000   0.000000   0.000000   0.000000   0.000000
     3  H    0.000000   0.000000   0.000000   0.000000   0.000000   0.000000
     4  C   -0.000005   0.000001   0.000000   0.000000   0.000000   0.000000
     5  H    0.000001   0.000000   0.000000   0.000000   0.000000   0.000000
     6  C    0.000435  -0.000173   0.000001   0.000013  -0.000016   0.000000
     7  H    0.000014  -0.000003   0.000000  -0.000005  -0.000001   0.000000
     8  C   -0.008340   0.003347  -0.000089   0.000536   0.000214  -0.000009
     9  H    0.003745   0.000058   0.000000  -0.000002   0.000002   0.000000
    10  C   -0.055824  -0.022296   0.004268  -0.022112   0.004992   0.000276
    11  H    0.006288  -0.013698   0.000012   0.003905   0.005305  -0.000028
    12  C    0.364825   0.401994  -0.039509  -0.038473  -0.018558   0.004445
    13  H    0.598922  -0.042404  -0.003385   0.004896  -0.000024  -0.000123
    14  C   -0.042404   4.803276   0.365912   0.653789  -0.030995  -0.025451
    15  H   -0.003385   0.365912   0.593825  -0.054139   0.006188  -0.006658
    16  C    0.004896   0.653789  -0.054139   5.050836   0.363637   0.367738
    17  H   -0.000024  -0.030995   0.006188   0.363637   0.566014  -0.040072
    18  H   -0.000123  -0.025451  -0.006658   0.367738  -0.040072   0.556024
 Mulliken atomic charges:
              1
     1  C   -0.344811
     2  H    0.143364
     3  H    0.142526
     4  C   -0.078075
     5  H    0.132723
     6  C   -0.130770
     7  H    0.130910
     8  C   -0.125497
     9  H    0.131312
    10  C   -0.109218
    11  H    0.129645
    12  C   -0.149856
    13  H    0.130979
    14  C   -0.093356
    15  H    0.133574
    16  C   -0.330620
    17  H    0.143314
    18  H    0.143857
 Sum of Mulliken atomic charges =   0.00000
 Mulliken charges with hydrogens summed into heavy atoms:
              1
     1  C   -0.058920
     4  C    0.054648
     6  C    0.000140
     8  C    0.005815
    10  C    0.020427
    12  C   -0.018878
    14  C    0.040217
    16  C   -0.043450
 Sum of Mulliken charges with hydrogens summed into heavy atoms =   0.00000
 Electronic spatial extent (au):  <R**2>=           1844.2510
 Charge=              0.0000 electrons
 Dipole moment (field-independent basis, Debye):
    X=             -0.1640    Y=             -0.0856    Z=              0.0000  Tot=              0.1850
 Quadrupole moment (field-independent basis, Debye-Ang):
   XX=            -43.0633   YY=            -44.5438   ZZ=            -53.9456
   XY=              0.1836   XZ=              0.0000   YZ=              0.0000
 Traceless Quadrupole moment (field-independent basis, Debye-Ang):
   XX=              4.1209   YY=              2.6404   ZZ=             -6.7613
   XY=              0.1836   XZ=              0.0000   YZ=              0.0000
 Octapole moment (field-independent basis, Debye-Ang**2):
  XXX=             -1.7113  YYY=             -5.4788  ZZZ=              0.0000  XYY=             -3.3752
  XXY=              1.1843  XXZ=              0.0000  XZZ=             -0.2142  YZZ=             -0.2673
  YYZ=              0.0000  XYZ=              0.0000
 Hexadecapole moment (field-independent basis, Debye-Ang**3):
 XXXX=           -225.9791 YYYY=          -2076.4764 ZZZZ=            -56.2768 XXXY=            105.5968
 XXXZ=              0.0000 YYYX=             96.2735 YYYZ=              0.0000 ZZZX=              0.0000
 ZZZY=              0.0000 XXYY=           -380.6537 XXZZ=            -53.0360 YYZZ=           -432.1234
 XXYZ=              0.0000 YYXZ=              0.0000 ZZXY=             42.9074
 N-N= 2.976447836272D+02 E-N=-1.313684430536D+03  KE= 3.074445031080D+02
 Symmetry A'   KE= 2.990104777379D+02
 Symmetry A"   KE= 8.434025370055D+00
 Calling FoFJK, ICntrl=      2127 FMM=F ISym2X=1 I1Cent= 0 IOpClX= 0 NMat=1 NMatS=1 NMatT=0.
 ***** Axes restored to original set *****
 -------------------------------------------------------------------
 Center     Atomic                   Forces (Hartrees/Bohr)
 Number     Number              X              Y              Z
 -------------------------------------------------------------------
      1        6           0.010248838   -0.000121791   -0.030881678
      2        1           0.002585821   -0.000030728    0.011830450
      3        1          -0.011492291    0.000136568    0.004813775
      4        6           0.045236830   -0.000537569    0.042353049
      5        1          -0.001619323    0.000019243   -0.013059041
      6        6          -0.052378175    0.000622432   -0.036403460
      7        1           0.001422567   -0.000016905    0.013005957
      8        6           0.055377756   -0.000658078    0.035741385
      9        1          -0.001848037    0.000021961   -0.012711245
     10        6          -0.058332632    0.000693192   -0.039823486
     11        1          -0.003456607    0.000041076    0.011970420
     12        6           0.043896996   -0.000521647    0.024136393
     13        1          -0.003471842    0.000041257   -0.011460055
     14        6          -0.035450350    0.000421272    0.030561518
     15        1           0.002815518   -0.000033458   -0.012086140
     16        6          -0.007501589    0.000089145   -0.033200625
     17        1           0.002885343   -0.000034288    0.011182849
     18        1           0.011081177   -0.000131682    0.004029934
 -------------------------------------------------------------------
 Cartesian Forces:  Max     0.058332632 RMS     0.021814654

 GradGradGradGradGradGradGradGradGradGradGradGradGradGradGradGradGradGrad
 Berny optimization.
 Internal  Forces:  Max     0.047450160 RMS     0.012610453
 Search for a local minimum.
 Step number   1 out of a maximum of   79
 All quantities printed in internal units (Hartrees-Bohrs-Radians)
 Mixed Optimization -- RFO/linear search
 Second derivative matrix not updated -- first step.
 ITU=  0
     Eigenvalues ---    0.00237   0.00237   0.00237   0.01459   0.01459
     Eigenvalues ---    0.01459   0.01463   0.01463   0.01463   0.02681
     Eigenvalues ---    0.02681   0.02681   0.02681   0.02681   0.02681
     Eigenvalues ---    0.16000   0.16000   0.16000   0.16000   0.16000
     Eigenvalues ---    0.16000   0.16000   0.16000   0.16000   0.16000
     Eigenvalues ---    0.22000   0.22000   0.22000   0.22000   0.22000
     Eigenvalues ---    0.22000   0.28519   0.28519   0.28519   0.37230
     Eigenvalues ---    0.37230   0.37230   0.37230   0.37230   0.37230
     Eigenvalues ---    0.37230   0.37230   0.37230   0.37230   0.53930
     Eigenvalues ---    0.53930   0.53930   0.53930
 RFO step:  Lambda=-3.69043185D-02 EMin= 2.36824099D-03
 Linear search not attempted -- first point.
 Maximum step size (   0.300) exceeded in Quadratic search.
    -- Step size scaled by   0.835
 Iteration  1 RMS(Cart)=  0.13997248 RMS(Int)=  0.00734336
 Iteration  2 RMS(Cart)=  0.01221173 RMS(Int)=  0.00003542
 Iteration  3 RMS(Cart)=  0.00009925 RMS(Int)=  0.00000001
 Iteration  4 RMS(Cart)=  0.00000001 RMS(Int)=  0.00000000
 ClnCor:  largest displacement from symmetrization is 1.89D-08 for atom     2.
 Variable       Old X    -DE/DX   Delta X   Delta X   Delta X     New X
                                 (Linear)    (Quad)   (Total)
    R1        2.02201   0.01150   0.00000   0.02346   0.02346   2.04547
    R2        2.02201   0.01155   0.00000   0.02356   0.02356   2.04557
    R3        2.56096  -0.01308   0.00000  -0.01895  -0.01895   2.54201
    R4        2.02201   0.01207   0.00000   0.02462   0.02462   2.04662
    R5        2.91018  -0.04478   0.00000  -0.11606  -0.11606   2.79412
    R6        2.02201   0.01192   0.00000   0.02432   0.02432   2.04633
    R7        2.56096  -0.00430   0.00000  -0.00623  -0.00623   2.55473
    R8        2.02201   0.01191   0.00000   0.02430   0.02430   2.04631
    R9        2.91018  -0.04745   0.00000  -0.12297  -0.12297   2.78720
   R10        2.02201   0.00860   0.00000   0.01755   0.01755   2.03956
   R11        2.56096  -0.00431   0.00000  -0.00624  -0.00624   2.55472
   R12        2.02201   0.01167   0.00000   0.02380   0.02380   2.04581
   R13        2.91018  -0.02617   0.00000  -0.06783  -0.06783   2.84235
   R14        2.02201   0.01188   0.00000   0.02424   0.02424   2.04625
   R15        2.56096  -0.01229   0.00000  -0.01780  -0.01780   2.54315
   R16        2.02201   0.00831   0.00000   0.01694   0.01694   2.03895
   R17        2.02201   0.01106   0.00000   0.02256   0.02256   2.04456
    A1        2.09241  -0.00571   0.00000  -0.02419  -0.02419   2.06822
    A2        2.09836   0.00196   0.00000   0.00829   0.00829   2.10665
    A3        2.09241   0.00375   0.00000   0.01590   0.01590   2.10832
    A4        2.09836  -0.00079   0.00000   0.00267   0.00267   2.10103
    A5        2.09241   0.01220   0.00000   0.03963   0.03963   2.13205
    A6        2.09241  -0.01140   0.00000  -0.04230  -0.04230   2.05011
    A7        2.09241  -0.01089   0.00000  -0.04078  -0.04078   2.05163
    A8        2.09836   0.01088   0.00000   0.03536   0.03536   2.13372
    A9        2.09241   0.00001   0.00000   0.00542   0.00542   2.09783
   A10        2.09836  -0.00110   0.00000   0.00123   0.00123   2.09959
   A11        2.09241   0.01191   0.00000   0.03870   0.03870   2.13111
   A12        2.09241  -0.01081   0.00000  -0.03993  -0.03993   2.05248
   A13        2.09241  -0.01303   0.00000  -0.05135  -0.05135   2.04106
   A14        2.09836   0.00783   0.00000   0.02544   0.02544   2.12380
   A15        2.09241   0.00520   0.00000   0.02591   0.02591   2.11832
   A16        2.09836  -0.01345   0.00000  -0.04101  -0.04101   2.05735
   A17        2.09241   0.03236   0.00000   0.10515   0.10515   2.19757
   A18        2.09241  -0.01891   0.00000  -0.06415  -0.06415   2.02827
   A19        2.09241  -0.01998   0.00000  -0.06849  -0.06849   2.02392
   A20        2.09836   0.03271   0.00000   0.10628   0.10628   2.20464
   A21        2.09241  -0.01273   0.00000  -0.03779  -0.03779   2.05462
   A22        2.09836   0.00806   0.00000   0.03416   0.03416   2.13251
   A23        2.09241   0.00011   0.00000   0.00047   0.00047   2.09289
   A24        2.09241  -0.00817   0.00000  -0.03463  -0.03463   2.05778
    D1        3.14159   0.00000   0.00000   0.00000   0.00000   3.14159
    D2        0.00000   0.00000   0.00000   0.00000   0.00000   0.00000
    D3        0.00000   0.00000   0.00000   0.00000   0.00000   0.00000
    D4        3.14159   0.00000   0.00000   0.00000   0.00000   3.14159
    D5        0.00000   0.00000   0.00000   0.00000   0.00000   0.00000
    D6        3.14159   0.00000   0.00000   0.00000   0.00000   3.14159
    D7       -3.14159   0.00000   0.00000   0.00000   0.00000   3.14159
    D8        0.00000   0.00000   0.00000   0.00000   0.00000   0.00000
    D9        0.00000   0.00000   0.00000   0.00000   0.00000   0.00000
   D10        3.14159   0.00000   0.00000   0.00000   0.00000   3.14159
   D11        3.14159   0.00000   0.00000   0.00000   0.00000   3.14159
   D12        0.00000   0.00000   0.00000   0.00000   0.00000   0.00000
   D13        0.00000   0.00000   0.00000   0.00000   0.00000   0.00000
   D14        3.14159   0.00000   0.00000   0.00000   0.00000   3.14159
   D15        3.14159   0.00000   0.00000   0.00000   0.00000  -3.14159
   D16        0.00000   0.00000   0.00000   0.00000   0.00000   0.00000
   D17        0.00000   0.00000   0.00000   0.00000   0.00000   0.00000
   D18        3.14159   0.00000   0.00000   0.00000   0.00000   3.14159
   D19       -3.14159   0.00000   0.00000   0.00000   0.00000  -3.14159
   D20        0.00000   0.00000   0.00000   0.00000   0.00000   0.00000
   D21        3.14159   0.00000   0.00000   0.00000   0.00000  -3.14159
   D22        0.00000   0.00000   0.00000   0.00000   0.00000   0.00000
   D23        0.00000   0.00000   0.00000   0.00000   0.00000   0.00000
   D24       -3.14159   0.00000   0.00000   0.00000   0.00000   3.14159
   D25        0.00000   0.00000   0.00000   0.00000   0.00000   0.00000
   D26       -3.14159   0.00000   0.00000   0.00000   0.00000   3.14159
   D27        3.14159   0.00000   0.00000   0.00000   0.00000  -3.14159
   D28        0.00000   0.00000   0.00000   0.00000   0.00000   0.00000
         Item               Value     Threshold  Converged?
 Maximum Force            0.047450     0.000450     NO 
 RMS     Force            0.012610     0.000300     NO 
 Maximum Displacement     0.630037     0.001800     NO 
 RMS     Displacement     0.146143     0.001200     NO 
 Predicted change in Energy=-1.960896D-02
 GradGradGradGradGradGradGradGradGradGradGradGradGradGradGradGradGradGrad

                          Input orientation:                          
 ---------------------------------------------------------------------
 Center     Atomic      Atomic             Coordinates (Angstroms)
 Number     Number       Type             X           Y           Z
 ---------------------------------------------------------------------
      1          6           0       -6.065529    2.102730    3.501949
      2          1           0       -5.581560    2.096979    4.470125
      3          1           0       -7.147300    2.115585    3.465316
      4          6           0       -5.338135    2.094086    2.370442
      5          1           0       -5.827814    2.099905    1.404457
      6          6           0       -3.859730    2.076517    2.385400
      7          1           0       -3.368651    2.070682    3.350498
      8          6           0       -3.126792    2.067808    1.249454
      9          1           0       -3.616168    2.073623    0.283501
     10          6           0       -1.652090    2.050283    1.268223
     11          1           0       -1.175356    2.044618    2.236495
     12          6           0       -0.927484    2.041672    0.126952
     13          1           0       -1.463969    2.048048   -0.813341
     14          6           0        0.573715    2.023833    0.035191
     15          1           0        0.987447    2.018916   -0.965466
     16          6           0        1.435357    2.013594    1.068918
     17          1           0        1.101929    2.017556    2.095065
     18          1           0        2.501106    2.000929    0.882892
 ---------------------------------------------------------------------
                    Distance matrix (angstroms):
                    1          2          3          4          5
     1  C    0.000000
     2  H    1.082416   0.000000
     3  H    1.082467   1.860518   0.000000
     4  C    1.345171   2.113749   2.114779   0.000000
     5  H    2.110922   3.075544   2.447127   1.083027   0.000000
     6  C    2.472432   2.703923   3.460616   1.478585   2.199125
     7  H    2.701317   2.480166   3.780659   2.199982   3.136146
     8  C    3.702854   4.049625   4.590949   2.479383   2.705656
     9  H    4.044579   4.625055   4.753378   2.705718   2.479639
    10  C    4.946789   5.069033   5.918514   3.847561   4.178240
    11  H    5.051589   4.940292   6.097471   4.165227   4.726596
    12  C    6.147669   6.366054   7.059480   4.948720   5.064449
    13  H    6.308650   6.698654   7.114192   5.014753   4.895350
    14  C    7.490273   7.586923   8.449157   6.356752   6.546774
    15  H    8.349209   8.526641   9.263654   7.151707   7.216015
    16  C    7.886119   7.798223   8.911516   6.897871   7.271429
    17  H    7.304727   7.093395   8.362834   6.446403   6.964558
    18  H    8.958630   8.843470   9.988683   7.979672   8.345821
                    6          7          8          9         10
     6  C    0.000000
     7  H    1.082870   0.000000
     8  C    1.351905   2.114921   0.000000
     9  H    2.115965   3.076970   1.082860   0.000000
    10  C    2.474358   2.698679   1.474925   2.197230   0.000000
    11  H    2.688690   2.460128   2.186982   3.126114   1.079286
    12  C    3.701333   4.043685   2.469342   2.693427   1.351897
    13  H    3.996551   4.578852   2.649621   2.415715   2.090048
    14  C    5.018136   5.151282   3.894884   4.197530   2.544656
    15  H    5.892940   6.132358   4.672818   4.770344   3.457963
    16  C    5.456650   5.318586   4.566042   5.112571   3.094091
    17  H    4.970496   4.643816   4.312734   5.054241   2.875650
    18  H    6.536320   6.367731   5.640219   6.146998   4.171325
                   11         12         13         14         15
    11  H    0.000000
    12  C    2.124057   0.000000
    13  H    3.063463   1.082594   0.000000
    14  C    2.811657   1.504107   2.207431   0.000000
    15  H    3.864056   2.204735   2.456305   1.082826   0.000000
    16  C    2.860073   2.543836   3.456903   1.345779   2.083115
    17  H    2.281833   2.827113   3.878607   2.126530   3.062671
    18  H    3.917974   3.511172   4.312916   2.105696   2.389123
                   16         17         18
    16  C    0.000000
    17  H    1.078965   0.000000
    18  H    1.081937   1.851306   0.000000
 Stoichiometry    C8H10
 Framework group  CS[SG(C8H10)]
 Deg. of freedom    33
 Full point group                 CS      NOp   2
 Largest Abelian subgroup         CS      NOp   2
 Largest concise Abelian subgroup C1      NOp   1
                         Standard orientation:                         
 ---------------------------------------------------------------------
 Center     Atomic      Atomic             Coordinates (Angstroms)
 Number     Number       Type             X           Y           Z
 ---------------------------------------------------------------------
      1          6           0        0.613069    4.147876    0.000000
      2          1           0        1.687788    4.019022    0.000000
      3          1           0        0.213472    5.153887    0.000000
      4          6           0       -0.206545    3.081237    0.000000
      5          1           0       -1.281128    3.216207    0.000000
      6          6           0        0.306520    1.694522    0.000000
      7          1           0        1.380741    1.557936    0.000000
      8          6           0       -0.515402    0.621166    0.000000
      9          1           0       -1.589852    0.755862    0.000000
     10          6           0        0.000000   -0.760776    0.000000
     11          1           0        1.072367   -0.882789    0.000000
     12          6           0       -0.829745   -1.828086    0.000000
     13          1           0       -1.895942   -1.640382    0.000000
     14          6           0       -0.409445   -3.272276    0.000000
     15          1           0       -1.211751   -3.999474    0.000000
     16          6           0        0.854449   -3.734548    0.000000
     17          1           0        1.707854   -3.074345    0.000000
     18          1           0        1.039043   -4.800621    0.000000
 ---------------------------------------------------------------------
 Rotational constants (GHZ):     10.7500570      0.6224490      0.5883806
 Standard basis: 6-31G(d) (6D, 7F)
 There are   108 symmetry adapted basis functions of A'  symmetry.
 There are    32 symmetry adapted basis functions of A"  symmetry.
 Integral buffers will be    131072 words long.
 Raffenetti 2 integral format.
 Two-electron integral symmetry is turned on.
   140 basis functions,   264 primitive gaussians,   140 cartesian basis functions
    29 alpha electrons       29 beta electrons
       nuclear repulsion energy       298.5597311033 Hartrees.
 NAtoms=   18 NActive=   18 NUniq=   18 SFac= 1.00D+00 NAtFMM=   60 NAOKFM=F Big=F
 One-electron integrals computed using PRISM.
 NBasis=   140 RedAO= T  NBF=   108    32
 NBsUse=   140 1.00D-06 NBFU=   108    32
 Initial guess read from the read-write file.
 B after Tr=     0.000000    0.000000    0.000000
         Rot=    1.000000    0.000000    0.000000    0.000000 Ang=   0.00 deg.
 Initial guess orbital symmetries:
       Occupied  (A') (A') (A') (A') (A') (A') (A') (A') (A') (A')
                 (A') (A') (A') (A') (A') (A') (A') (A') (A') (A')
                 (A') (A') (A') (A') (A') (A") (A") (A") (A")
       Virtual   (A") (A") (A") (A') (A") (A') (A') (A') (A') (A')
                 (A') (A') (A') (A') (A') (A') (A') (A') (A') (A')
                 (A') (A') (A') (A") (A") (A') (A') (A") (A') (A')
                 (A") (A") (A') (A') (A") (A') (A') (A") (A") (A')
                 (A') (A') (A') (A') (A') (A') (A') (A') (A') (A')
                 (A') (A') (A') (A') (A') (A') (A') (A') (A') (A')
                 (A') (A") (A") (A") (A') (A") (A") (A') (A") (A")
                 (A") (A") (A') (A') (A') (A') (A') (A') (A") (A')
                 (A') (A") (A') (A') (A") (A') (A') (A') (A') (A")
                 (A') (A") (A") (A") (A') (A') (A') (A') (A') (A')
                 (A') (A') (A') (A') (A') (A') (A') (A') (A') (A')
                 (A')
 Harris functional with IExCor=  402 diagonalized for initial guess.
 ExpMin= 1.61D-01 ExpMax= 3.05D+03 ExpMxC= 4.57D+02 IAcc=1 IRadAn=         1 AccDes= 0.00D+00
 HarFok:  IExCor=  402 AccDes= 0.00D+00 IRadAn=         1 IDoV= 1
 ScaDFX=  1.000000  1.000000  1.000000  1.000000
 FoFCou: FMM=F IPFlag=           0 FMFlag=      100000 FMFlg1=           0
         NFxFlg=           0 DoJE=T BraDBF=F KetDBF=T FulRan=T
         Omega=  0.000000  0.000000  1.000000  0.000000  0.000000 ICntrl=     500 IOpCl=  0
         NMat0=    1 NMatS0=    1 NMatT0=    0 NMatD0=    1 NMtDS0=    0 NMtDT0=    0
         I1Cent=           4 NGrid=           0.
 Petite list used in FoFCou.
 Requested convergence on RMS density matrix=1.00D-08 within 128 cycles.
 Requested convergence on MAX density matrix=1.00D-06.
 Requested convergence on             energy=1.00D-06.
 No special actions if energy rises.
 Integral accuracy reduced to 1.0D-05 until final iterations.
 Initial convergence to 1.0D-05 achieved.  Increase integral accuracy.
 SCF Done:  E(RB3LYP) =  -310.796492822     A.U. after   14 cycles
             Convg  =    0.3624D-08             -V/T =  2.0105
 Calling FoFJK, ICntrl=      2127 FMM=F ISym2X=1 I1Cent= 0 IOpClX= 0 NMat=1 NMatS=1 NMatT=0.
 ***** Axes restored to original set *****
 -------------------------------------------------------------------
 Center     Atomic                   Forces (Hartrees/Bohr)
 Number     Number              X              Y              Z
 -------------------------------------------------------------------
      1        6           0.000320442   -0.000003808   -0.009777227
      2        1          -0.000721484    0.000008574    0.003779320
      3        1          -0.002377139    0.000028249    0.002755457
      4        6           0.019623274   -0.000233192    0.014948419
      5        1          -0.000956878    0.000011371   -0.003919426
      6        6          -0.024682067    0.000293308   -0.013739783
      7        1           0.001294857   -0.000015387    0.003863230
      8        6           0.026199275   -0.000311337    0.013329765
      9        1          -0.001610858    0.000019143   -0.003773078
     10        6          -0.023823753    0.000283108   -0.015242403
     11        1           0.002772793   -0.000032950    0.005493418
     12        6           0.028326391   -0.000336615    0.005033361
     13        1          -0.000771732    0.000009171   -0.004374679
     14        6          -0.021122414    0.000251007    0.009742296
     15        1          -0.000584257    0.000006943   -0.004601950
     16        6          -0.004944782    0.000058761   -0.010941406
     17        1           0.000158116   -0.000001879    0.005524359
     18        1           0.002900216   -0.000034465    0.001900324
 -------------------------------------------------------------------
 Cartesian Forces:  Max     0.028326391 RMS     0.009505450

 GradGradGradGradGradGradGradGradGradGradGradGradGradGradGradGradGradGrad
 Berny optimization.
 Using GEDIIS/GDIIS optimizer.
 Internal  Forces:  Max     0.023649411 RMS     0.004860496
 Search for a local minimum.
 Step number   2 out of a maximum of   79
 All quantities printed in internal units (Hartrees-Bohrs-Radians)
 Mixed Optimization -- RFO/linear search
 Update second derivatives using D2CorX and points    1    2
 DE= -1.96D-02 DEPred=-1.96D-02 R= 1.00D+00
 SS=  1.41D+00  RLast= 3.00D-01 DXNew= 5.0454D-01 9.0000D-01
 Trust test= 1.00D+00 RLast= 3.00D-01 DXMaxT set to 5.05D-01
 ITU=  1  0
 Use linear search instead of GDIIS.
     Eigenvalues ---    0.00237   0.00237   0.00237   0.01477   0.01478
     Eigenvalues ---    0.01490   0.01491   0.01493   0.01512   0.02681
     Eigenvalues ---    0.02681   0.02681   0.02681   0.02681   0.02681
     Eigenvalues ---    0.15420   0.16000   0.16000   0.16000   0.16000
     Eigenvalues ---    0.16000   0.16000   0.16000   0.16000   0.16392
     Eigenvalues ---    0.18928   0.22000   0.22000   0.22000   0.22000
     Eigenvalues ---    0.24471   0.25655   0.28519   0.32016   0.36740
     Eigenvalues ---    0.37230   0.37230   0.37230   0.37230   0.37230
     Eigenvalues ---    0.37230   0.37230   0.37230   0.37990   0.53819
     Eigenvalues ---    0.53930   0.53930   0.54537
 RFO step:  Lambda=-4.94227230D-03 EMin= 2.36824099D-03
 Quartic linear search produced a step of  0.48277.
 Iteration  1 RMS(Cart)=  0.03616349 RMS(Int)=  0.00043439
 Iteration  2 RMS(Cart)=  0.00104575 RMS(Int)=  0.00000010
 Iteration  3 RMS(Cart)=  0.00000013 RMS(Int)=  0.00000001
 ClnCor:  largest displacement from symmetrization is 9.83D-08 for atom    11.
 Variable       Old X    -DE/DX   Delta X   Delta X   Delta X     New X
                                 (Linear)    (Quad)   (Total)
    R1        2.04547   0.00306   0.01133   0.00195   0.01327   2.05874
    R2        2.04557   0.00228   0.01137  -0.00113   0.01024   2.05581
    R3        2.54201  -0.00123  -0.00915   0.00473  -0.00442   2.53758
    R4        2.04662   0.00393   0.01188   0.00487   0.01676   2.06338
    R5        2.79412  -0.01597  -0.05603  -0.03140  -0.08743   2.70669
    R6        2.04633   0.00403   0.01174   0.00540   0.01714   2.06346
    R7        2.55473   0.00231  -0.00301   0.00893   0.00592   2.56065
    R8        2.04631   0.00409   0.01173   0.00565   0.01739   2.06370
    R9        2.78720  -0.01718  -0.05937  -0.03463  -0.09400   2.69321
   R10        2.03956   0.00615   0.00847   0.01663   0.02510   2.06466
   R11        2.55472   0.00020  -0.00301   0.00319   0.00017   2.55489
   R12        2.04581   0.00418   0.01149   0.00621   0.01770   2.06351
   R13        2.84235  -0.02365  -0.03275  -0.09141  -0.12415   2.71820
   R14        2.04625   0.00403   0.01170   0.00543   0.01713   2.06337
   R15        2.54315  -0.00391  -0.00859  -0.00306  -0.01165   2.53150
   R16        2.03895   0.00521   0.00818   0.01317   0.02135   2.06030
   R17        2.04456   0.00253   0.01089   0.00027   0.01116   2.05572
    A1        2.06822  -0.00352  -0.01168  -0.02096  -0.03264   2.03558
    A2        2.10665   0.00125   0.00400   0.00758   0.01159   2.11824
    A3        2.10832   0.00227   0.00768   0.01338   0.02105   2.12937
    A4        2.10103  -0.00250   0.00129  -0.01550  -0.01421   2.08682
    A5        2.13205   0.00688   0.01913   0.02805   0.04718   2.17923
    A6        2.05011  -0.00438  -0.02042  -0.01255  -0.03297   2.01714
    A7        2.05163  -0.00375  -0.01969  -0.00829  -0.02798   2.02366
    A8        2.13372   0.00628   0.01707   0.02596   0.04303   2.17676
    A9        2.09783  -0.00253   0.00261  -0.01767  -0.01506   2.08277
   A10        2.09959  -0.00321   0.00060  -0.02114  -0.02055   2.07904
   A11        2.13111   0.00698   0.01868   0.02907   0.04775   2.17886
   A12        2.05248  -0.00376  -0.01928  -0.00792  -0.02720   2.02528
   A13        2.04106  -0.00311  -0.02479   0.00224  -0.02255   2.01852
   A14        2.12380   0.00635   0.01228   0.03070   0.04298   2.16678
   A15        2.11832  -0.00324   0.01251  -0.03294  -0.02043   2.09789
   A16        2.05735   0.00032  -0.01980   0.02356   0.00377   2.06112
   A17        2.19757   0.00242   0.05077  -0.02983   0.02093   2.21850
   A18        2.02827  -0.00274  -0.03097   0.00627  -0.02470   2.00356
   A19        2.02392  -0.00346  -0.03307   0.00148  -0.03158   1.99234
   A20        2.20464   0.00222   0.05131  -0.03163   0.01968   2.22432
   A21        2.05462   0.00124  -0.01824   0.03014   0.01190   2.06652
   A22        2.13251   0.00091   0.01649  -0.00690   0.00959   2.14210
   A23        2.09289   0.00197   0.00023   0.01747   0.01770   2.11058
   A24        2.05778  -0.00288  -0.01672  -0.01057  -0.02728   2.03050
    D1        3.14159   0.00000   0.00000   0.00000   0.00000   3.14159
    D2        0.00000   0.00000   0.00000   0.00000   0.00000   0.00000
    D3        0.00000   0.00000   0.00000   0.00000   0.00000   0.00000
    D4        3.14159   0.00000   0.00000   0.00000   0.00000   3.14159
    D5        0.00000   0.00000   0.00000   0.00000   0.00000   0.00000
    D6        3.14159   0.00000   0.00000   0.00000   0.00000   3.14159
    D7        3.14159   0.00000   0.00000   0.00000   0.00000   3.14159
    D8        0.00000   0.00000   0.00000   0.00000   0.00000   0.00000
    D9        0.00000   0.00000   0.00000   0.00000   0.00000   0.00000
   D10        3.14159   0.00000   0.00000   0.00000   0.00000   3.14159
   D11        3.14159   0.00000   0.00000   0.00000   0.00000  -3.14159
   D12        0.00000   0.00000   0.00000   0.00000   0.00000   0.00000
   D13        0.00000   0.00000   0.00000   0.00000   0.00000   0.00000
   D14        3.14159   0.00000   0.00000   0.00000   0.00000   3.14159
   D15        3.14159   0.00000   0.00000   0.00000   0.00000   3.14159
   D16        0.00000   0.00000   0.00000   0.00000   0.00000   0.00000
   D17        0.00000   0.00000   0.00000   0.00000   0.00000   0.00000
   D18       -3.14159   0.00000   0.00000   0.00000   0.00000   3.14159
   D19        3.14159   0.00000   0.00000   0.00000   0.00000   3.14159
   D20        0.00000   0.00000   0.00000   0.00000   0.00000   0.00000
   D21       -3.14159   0.00000   0.00000   0.00000   0.00000   3.14159
   D22        0.00000   0.00000   0.00000   0.00000   0.00000   0.00000
   D23        0.00000   0.00000   0.00000   0.00000   0.00000   0.00000
   D24        3.14159   0.00000   0.00000   0.00000   0.00000  -3.14159
   D25        0.00000   0.00000   0.00000   0.00000   0.00000   0.00000
   D26        3.14159   0.00000   0.00000   0.00000   0.00000   3.14159
   D27        3.14159   0.00000   0.00000   0.00000   0.00000   3.14159
   D28        0.00000   0.00000   0.00000   0.00000   0.00000   0.00000
         Item               Value     Threshold  Converged?
 Maximum Force            0.023649     0.000450     NO 
 RMS     Force            0.004860     0.000300     NO 
 Maximum Displacement     0.141472     0.001800     NO 
 RMS     Displacement     0.036532     0.001200     NO 
 Predicted change in Energy=-4.211803D-03
 GradGradGradGradGradGradGradGradGradGradGradGradGradGradGradGradGradGrad

                          Input orientation:                          
 ---------------------------------------------------------------------
 Center     Atomic      Atomic             Coordinates (Angstroms)
 Number     Number       Type             X           Y           Z
 ---------------------------------------------------------------------
      1          6           0       -6.052958    2.102580    3.489870
      2          1           0       -5.610197    2.097319    4.485267
      3          1           0       -7.139605    2.115494    3.439597
      4          6           0       -5.289478    2.093508    2.385238
      5          1           0       -5.764355    2.099151    1.402033
      6          6           0       -3.857272    2.076488    2.380038
      7          1           0       -3.375976    2.070769    3.360166
      8          6           0       -3.089611    2.067366    1.263462
      9          1           0       -3.574613    2.073129    0.285026
     10          6           0       -1.664551    2.050431    1.255286
     11          1           0       -1.185958    2.044744    2.237438
     12          6           0       -0.912134    2.041490    0.132049
     13          1           0       -1.426224    2.047599   -0.831308
     14          6           0        0.523799    2.024426    0.049442
     15          1           0        0.912584    2.019806   -0.970876
     16          6           0        1.397947    2.014038    1.064490
     17          1           0        1.087770    2.017724    2.109693
     18          1           0        2.469808    2.001301    0.879159
 ---------------------------------------------------------------------
                    Distance matrix (angstroms):
                    1          2          3          4          5
     1  C    0.000000
     2  H    1.089440   0.000000
     3  H    1.087886   1.852793   0.000000
     4  C    1.342831   2.124381   2.129583   0.000000
     5  H    2.107692   3.087085   2.458301   1.091894   0.000000
     6  C    2.460375   2.739557   3.449333   1.432317   2.143356
     7  H    2.680311   2.501659   3.764732   2.147671   3.088599
     8  C    3.706691   4.090756   4.597862   2.469510   2.678520
     9  H    4.051429   4.667570   4.760491   2.711469   2.458323
    10  C    4.924855   5.099323   5.895054   3.797201   4.102719
    11  H    5.025894   4.962800   6.074216   4.106470   4.654308
    12  C    6.140583   6.405109   7.051719   4.923485   5.015998
    13  H    6.331056   6.765654   7.133580   5.027226   4.879534
    14  C    7.422693   7.570189   8.380286   6.265373   6.432415
    15  H    8.271873   8.504245   9.181458   7.052269   7.086502
    16  C    7.836216   7.798893   8.862348   6.817062   7.170757
    17  H    7.273382   7.107212   8.334741   6.383648   6.889052
    18  H    8.914236   8.848713   9.945336   7.904638   8.251328
                    6          7          8          9         10
     6  C    0.000000
     7  H    1.091938   0.000000
     8  C    1.355038   2.116173   0.000000
     9  H    2.113996   3.081550   1.092061   0.000000
    10  C    2.464502   2.712915   1.425184   2.142488   0.000000
    11  H    2.675305   2.461173   2.138466   3.085189   1.092569
    12  C    3.705201   4.061049   2.454011   2.667058   1.351989
    13  H    4.027849   4.622827   2.674940   2.421246   2.100163
    14  C    4.962677   5.115788   3.812140   4.105466   2.498722
    15  H    5.829525   6.095266   4.583894   4.659943   3.405637
    16  C    5.417738   5.297517   4.492283   5.033628   3.068652
    17  H    4.952775   4.635896   4.262521   5.007025   2.882075
    18  H    6.503094   6.350860   5.573078   6.073976   4.151724
                   11         12         13         14         15
    11  H    0.000000
    12  C    2.123124   0.000000
    13  H    3.078139   1.091962   0.000000
    14  C    2.776870   1.438409   2.139824   0.000000
    15  H    3.833769   2.132255   2.343133   1.091891   0.000000
    16  C    2.837836   2.491320   3.401635   1.339614   2.092445
    17  H    2.277475   2.812696   3.869179   2.136057   3.085547
    18  H    3.900184   3.463716   4.255221   2.115637   2.418248
                   16         17         18
    16  C    0.000000
    17  H    1.090262   0.000000
    18  H    1.087840   1.850544   0.000000
 Stoichiometry    C8H10
 Framework group  CS[SG(C8H10)]
 Deg. of freedom    33
 Full point group                 CS      NOp   2
 Largest Abelian subgroup         CS      NOp   2
 Largest concise Abelian subgroup C1      NOp   1
                         Standard orientation:                         
 ---------------------------------------------------------------------
 Center     Atomic      Atomic             Coordinates (Angstroms)
 Number     Number       Type             X           Y           Z
 ---------------------------------------------------------------------
      1          6           0        0.505679    4.146144    0.000000
      2          1           0        1.593732    4.091193    0.000000
      3          1           0        0.067730    5.141984    0.000000
      4          6           0       -0.250212    3.036268    0.000000
      5          1           0       -1.338447    3.125574    0.000000
      6          6           0        0.260333    1.698033    0.000000
      7          1           0        1.348008    1.601631    0.000000
      8          6           0       -0.505197    0.579957    0.000000
      9          1           0       -1.592626    0.680427    0.000000
     10          6           0        0.000000   -0.752681    0.000000
     11          1           0        1.088590   -0.845832    0.000000
     12          6           0       -0.777231   -1.858929    0.000000
     13          1           0       -1.861059   -1.725893    0.000000
     14          6           0       -0.337566   -3.228496    0.000000
     15          1           0       -1.149630   -3.958412    0.000000
     16          6           0        0.924062   -3.678895    0.000000
     17          1           0        1.787631   -3.013373    0.000000
     18          1           0        1.136868   -4.745718    0.000000
 ---------------------------------------------------------------------
 Rotational constants (GHZ):     11.0403312      0.6323950      0.5981336
 Standard basis: 6-31G(d) (6D, 7F)
 There are   108 symmetry adapted basis functions of A'  symmetry.
 There are    32 symmetry adapted basis functions of A"  symmetry.
 Integral buffers will be    131072 words long.
 Raffenetti 2 integral format.
 Two-electron integral symmetry is turned on.
   140 basis functions,   264 primitive gaussians,   140 cartesian basis functions
    29 alpha electrons       29 beta electrons
       nuclear repulsion energy       301.1866063787 Hartrees.
 NAtoms=   18 NActive=   18 NUniq=   18 SFac= 1.00D+00 NAtFMM=   60 NAOKFM=F Big=F
 One-electron integrals computed using PRISM.
 NBasis=   140 RedAO= T  NBF=   108    32
 NBsUse=   140 1.00D-06 NBFU=   108    32
 Initial guess read from the read-write file.
 B after Tr=     0.000000    0.000000    0.000000
         Rot=    1.000000    0.000000    0.000000    0.000000 Ang=   0.00 deg.
 Initial guess orbital symmetries:
       Occupied  (A') (A') (A') (A') (A') (A') (A') (A') (A') (A')
                 (A') (A') (A') (A') (A') (A') (A') (A') (A') (A')
                 (A') (A') (A') (A') (A') (A") (A") (A") (A")
       Virtual   (A") (A") (A") (A') (A") (A') (A') (A') (A') (A')
                 (A') (A') (A') (A') (A') (A') (A') (A') (A') (A')
                 (A') (A') (A') (A") (A") (A') (A") (A') (A') (A")
                 (A') (A") (A') (A') (A") (A') (A') (A") (A") (A')
                 (A') (A') (A') (A') (A') (A') (A') (A') (A') (A')
                 (A') (A') (A') (A') (A') (A') (A') (A') (A') (A')
                 (A') (A") (A") (A") (A") (A') (A") (A') (A") (A")
                 (A") (A") (A') (A') (A') (A') (A') (A') (A") (A')
                 (A') (A") (A') (A') (A") (A') (A') (A') (A') (A")
                 (A') (A") (A") (A") (A') (A') (A') (A') (A') (A')
                 (A') (A') (A') (A') (A') (A') (A') (A') (A') (A')
                 (A')
 Harris functional with IExCor=  402 diagonalized for initial guess.
 ExpMin= 1.61D-01 ExpMax= 3.05D+03 ExpMxC= 4.57D+02 IAcc=1 IRadAn=         1 AccDes= 0.00D+00
 HarFok:  IExCor=  402 AccDes= 0.00D+00 IRadAn=         1 IDoV= 1
 ScaDFX=  1.000000  1.000000  1.000000  1.000000
 FoFCou: FMM=F IPFlag=           0 FMFlag=      100000 FMFlg1=           0
         NFxFlg=           0 DoJE=T BraDBF=F KetDBF=T FulRan=T
         Omega=  0.000000  0.000000  1.000000  0.000000  0.000000 ICntrl=     500 IOpCl=  0
         NMat0=    1 NMatS0=    1 NMatT0=    0 NMatD0=    1 NMtDS0=    0 NMtDT0=    0
         I1Cent=           4 NGrid=           0.
 Petite list used in FoFCou.
 Requested convergence on RMS density matrix=1.00D-08 within 128 cycles.
 Requested convergence on MAX density matrix=1.00D-06.
 Requested convergence on             energy=1.00D-06.
 No special actions if energy rises.
 Integral accuracy reduced to 1.0D-05 until final iterations.
 Initial convergence to 1.0D-05 achieved.  Increase integral accuracy.
 SCF Done:  E(RB3LYP) =  -310.799041616     A.U. after   13 cycles
             Convg  =    0.5242D-08             -V/T =  2.0098
 Calling FoFJK, ICntrl=      2127 FMM=F ISym2X=1 I1Cent= 0 IOpClX= 0 NMat=1 NMatS=1 NMatT=0.
 ***** Axes restored to original set *****
 -------------------------------------------------------------------
 Center     Atomic                   Forces (Hartrees/Bohr)
 Number     Number              X              Y              Z
 -------------------------------------------------------------------
      1        6          -0.002418521    0.000028740    0.002755760
      2        1          -0.000540932    0.000006428   -0.000941049
      3        1           0.001699549   -0.000020196   -0.000143650
      4        6          -0.008202125    0.000097469   -0.005204746
      5        1          -0.001490037    0.000017707    0.001207449
      6        6           0.007600692   -0.000090322    0.004797602
      7        1           0.001620222   -0.000019254   -0.001107054
      8        6          -0.007861749    0.000093425   -0.004135688
      9        1          -0.001575661    0.000018724    0.001020836
     10        6           0.004887302   -0.000058078    0.006696218
     11        1           0.001191823   -0.000014163   -0.002122380
     12        6          -0.009741950    0.000115768   -0.004180774
     13        1          -0.001511053    0.000017956    0.002023877
     14        6           0.008875248   -0.000105468   -0.005647856
     15        1           0.001625344   -0.000019315    0.002027191
     16        6           0.006521546   -0.000077498    0.004484898
     17        1           0.000687533   -0.000008170   -0.002243907
     18        1          -0.001367233    0.000016247    0.000713273
 -------------------------------------------------------------------
 Cartesian Forces:  Max     0.009741950 RMS     0.003506806

 GradGradGradGradGradGradGradGradGradGradGradGradGradGradGradGradGradGrad
 Berny optimization.
 Using GEDIIS/GDIIS optimizer.
 Internal  Forces:  Max     0.016354209 RMS     0.003110588
 Search for a local minimum.
 Step number   3 out of a maximum of   79
 All quantities printed in internal units (Hartrees-Bohrs-Radians)
 Mixed Optimization -- RFO/linear search
 Update second derivatives using D2CorX and points    1    2    3
 DE= -2.55D-03 DEPred=-4.21D-03 R= 6.05D-01
 SS=  1.41D+00  RLast= 2.30D-01 DXNew= 8.4853D-01 6.9087D-01
 Trust test= 6.05D-01 RLast= 2.30D-01 DXMaxT set to 6.91D-01
 ITU=  1  1  0
 Use linear search instead of GDIIS.
     Eigenvalues ---    0.00237   0.00237   0.00237   0.01493   0.01494
     Eigenvalues ---    0.01497   0.01504   0.01504   0.01511   0.02681
     Eigenvalues ---    0.02681   0.02681   0.02681   0.02681   0.02681
     Eigenvalues ---    0.15043   0.16000   0.16000   0.16000   0.16000
     Eigenvalues ---    0.16000   0.16000   0.16000   0.16133   0.16507
     Eigenvalues ---    0.19352   0.22000   0.22000   0.22000   0.22009
     Eigenvalues ---    0.24904   0.28514   0.30395   0.33775   0.36440
     Eigenvalues ---    0.37230   0.37230   0.37230   0.37230   0.37230
     Eigenvalues ---    0.37230   0.37230   0.37445   0.37720   0.53828
     Eigenvalues ---    0.53930   0.54141   0.55649
 RFO step:  Lambda=-4.26505419D-04 EMin= 2.36824099D-03
 Quartic linear search produced a step of -0.30839.
 Iteration  1 RMS(Cart)=  0.02618740 RMS(Int)=  0.00003805
 Iteration  2 RMS(Cart)=  0.00006388 RMS(Int)=  0.00000001
 Iteration  3 RMS(Cart)=  0.00000001 RMS(Int)=  0.00000001
 ClnCor:  largest displacement from symmetrization is 6.68D-08 for atom     2.
 Variable       Old X    -DE/DX   Delta X   Delta X   Delta X     New X
                                 (Linear)    (Quad)   (Total)
    R1        2.05874  -0.00108  -0.00409   0.00140  -0.00269   2.05605
    R2        2.05581  -0.00169  -0.00316  -0.00056  -0.00372   2.05209
    R3        2.53758   0.00209   0.00136   0.00167   0.00304   2.54062
    R4        2.06338  -0.00044  -0.00517   0.00353  -0.00164   2.06174
    R5        2.70669   0.01094   0.02696   0.00327   0.03023   2.73692
    R6        2.06346  -0.00028  -0.00528   0.00393  -0.00135   2.06211
    R7        2.56065   0.00211  -0.00183   0.00433   0.00250   2.56315
    R8        2.06370  -0.00021  -0.00536   0.00412  -0.00124   2.06245
    R9        2.69321   0.01116   0.02899   0.00203   0.03101   2.72422
   R10        2.06466  -0.00139  -0.00774   0.00407  -0.00367   2.06099
   R11        2.55489   0.00518  -0.00005   0.00676   0.00671   2.56160
   R12        2.06351  -0.00107  -0.00546   0.00261  -0.00285   2.06066
   R13        2.71820   0.01635   0.03829   0.00594   0.04423   2.76242
   R14        2.06337  -0.00132  -0.00528   0.00200  -0.00328   2.06009
   R15        2.53150   0.00605   0.00359   0.00485   0.00844   2.53994
   R16        2.06030  -0.00235  -0.00658   0.00127  -0.00531   2.05498
   R17        2.05572  -0.00147  -0.00344   0.00011  -0.00333   2.05239
    A1        2.03558   0.00008   0.01007  -0.00922   0.00085   2.03643
    A2        2.11824   0.00030  -0.00357   0.00471   0.00114   2.11937
    A3        2.12937  -0.00038  -0.00649   0.00451  -0.00198   2.12739
    A4        2.08682  -0.00158   0.00438  -0.01119  -0.00680   2.08001
    A5        2.17923  -0.00069  -0.01455   0.01098  -0.00357   2.17566
    A6        2.01714   0.00227   0.01017   0.00020   0.01037   2.02751
    A7        2.02366   0.00248   0.00863   0.00241   0.01104   2.03470
    A8        2.17676  -0.00096  -0.01327   0.00898  -0.00429   2.17246
    A9        2.08277  -0.00153   0.00464  -0.01139  -0.00675   2.07602
   A10        2.07904  -0.00165   0.00634  -0.01326  -0.00692   2.07212
   A11        2.17886  -0.00055  -0.01473   0.01157  -0.00316   2.17571
   A12        2.02528   0.00220   0.00839   0.00169   0.01008   2.03536
   A13        2.01852   0.00208   0.00695   0.00290   0.00986   2.02837
   A14        2.16678  -0.00004  -0.01325   0.01193  -0.00133   2.16545
   A15        2.09789  -0.00205   0.00630  -0.01483  -0.00853   2.08936
   A16        2.06112  -0.00316  -0.00116  -0.01122  -0.01238   2.04874
   A17        2.21850   0.00161  -0.00646   0.01031   0.00386   2.22236
   A18        2.00356   0.00156   0.00762   0.00091   0.00852   2.01209
   A19        1.99234   0.00128   0.00974  -0.00205   0.00769   2.00003
   A20        2.22432   0.00206  -0.00607   0.01139   0.00532   2.22965
   A21        2.06652  -0.00334  -0.00367  -0.00935  -0.01302   2.05351
   A22        2.14210  -0.00029  -0.00296   0.00137  -0.00159   2.14052
   A23        2.11058   0.00063  -0.00546   0.00797   0.00251   2.11310
   A24        2.03050  -0.00034   0.00841  -0.00934  -0.00093   2.02957
    D1        3.14159   0.00000   0.00000   0.00000   0.00000   3.14159
    D2        0.00000   0.00000   0.00000   0.00000   0.00000   0.00000
    D3        0.00000   0.00000   0.00000   0.00000   0.00000   0.00000
    D4        3.14159   0.00000   0.00000   0.00000   0.00000  -3.14159
    D5        0.00000   0.00000   0.00000   0.00000   0.00000   0.00000
    D6        3.14159   0.00000   0.00000   0.00000   0.00000   3.14159
    D7        3.14159   0.00000   0.00000   0.00000   0.00000   3.14159
    D8        0.00000   0.00000   0.00000   0.00000   0.00000   0.00000
    D9        0.00000   0.00000   0.00000   0.00000   0.00000   0.00000
   D10        3.14159   0.00000   0.00000   0.00000   0.00000   3.14159
   D11       -3.14159   0.00000   0.00000   0.00000   0.00000   3.14159
   D12        0.00000   0.00000   0.00000   0.00000   0.00000   0.00000
   D13        0.00000   0.00000   0.00000   0.00000   0.00000   0.00000
   D14        3.14159   0.00000   0.00000   0.00000   0.00000   3.14159
   D15        3.14159   0.00000   0.00000   0.00000   0.00000   3.14159
   D16        0.00000   0.00000   0.00000   0.00000   0.00000   0.00000
   D17        0.00000   0.00000   0.00000   0.00000   0.00000   0.00000
   D18        3.14159   0.00000   0.00000   0.00000   0.00000   3.14159
   D19        3.14159   0.00000   0.00000   0.00000   0.00000   3.14159
   D20        0.00000   0.00000   0.00000   0.00000   0.00000   0.00000
   D21       -3.14159   0.00000   0.00000   0.00000   0.00000   3.14159
   D22        0.00000   0.00000   0.00000   0.00000   0.00000   0.00000
   D23        0.00000   0.00000   0.00000   0.00000   0.00000   0.00000
   D24       -3.14159   0.00000   0.00000   0.00000   0.00000   3.14159
   D25        0.00000   0.00000   0.00000   0.00000   0.00000   0.00000
   D26        3.14159   0.00000   0.00000   0.00000   0.00000   3.14159
   D27        3.14159   0.00000   0.00000   0.00000   0.00000   3.14159
   D28        0.00000   0.00000   0.00000   0.00000   0.00000   0.00000
         Item               Value     Threshold  Converged?
 Maximum Force            0.016354     0.000450     NO 
 RMS     Force            0.003111     0.000300     NO 
 Maximum Displacement     0.092745     0.001800     NO 
 RMS     Displacement     0.026185     0.001200     NO 
 Predicted change in Energy=-9.515736D-04
 GradGradGradGradGradGradGradGradGradGradGradGradGradGradGradGradGradGrad

                          Input orientation:                          
 ---------------------------------------------------------------------
 Center     Atomic      Atomic             Coordinates (Angstroms)
 Number     Number       Type             X           Y           Z
 ---------------------------------------------------------------------
      1          6           0       -6.080164    2.102904    3.494912
      2          1           0       -5.637664    2.097645    4.488867
      3          1           0       -7.164819    2.115793    3.444156
      4          6           0       -5.317380    2.093839    2.387847
      5          1           0       -5.799978    2.099574    1.409376
      6          6           0       -3.869169    2.076630    2.385650
      7          1           0       -3.379463    2.070810    3.360802
      8          6           0       -3.103198    2.067527    1.266310
      9          1           0       -3.596790    2.073393    0.292916
     10          6           0       -1.661721    2.050398    1.259446
     11          1           0       -1.175290    2.044617    2.235572
     12          6           0       -0.907724    2.041437    0.132993
     13          1           0       -1.433310    2.047683   -0.822419
     14          6           0        0.551206    2.024100    0.042900
     15          1           0        0.942920    2.019445   -0.974437
     16          6           0        1.437934    2.013563    1.052927
     17          1           0        1.136849    2.017141    2.097860
     18          1           0        2.506735    2.000862    0.860392
 ---------------------------------------------------------------------
                    Distance matrix (angstroms):
                    1          2          3          4          5
     1  C    0.000000
     2  H    1.088017   0.000000
     3  H    1.085919   1.850393   0.000000
     4  C    1.344438   2.125295   2.128215   0.000000
     5  H    2.104275   3.083766   2.450180   1.091027   0.000000
     6  C    2.473793   2.748006   3.461687   1.448315   2.163714
     7  H    2.704219   2.524425   3.786541   2.168570   3.109306
     8  C    3.718904   4.099915   4.608916   2.482165   2.700762
     9  H    4.052259   4.666022   4.760562   2.711013   2.470062
    10  C    4.952040   5.122452   5.921260   3.826098   4.141264
    11  H    5.064299   4.999293   6.110663   4.145181   4.698229
    12  C    6.169312   6.430329   7.079589   4.952998   5.056351
    13  H    6.343157   6.774131   7.145523   5.039240   4.904222
    14  C    7.476474   7.620639   8.432911   6.320122   6.496960
    15  H    8.325008   8.553239   9.234104   7.106466   7.152318
    16  C    7.905256   7.866183   8.929490   6.886416   7.247194
    17  H    7.351489   7.184527   8.410704   6.461196   6.971397
    18  H    8.982535   8.916638  10.011394   7.972362   8.325420
                    6          7          8          9         10
     6  C    0.000000
     7  H    1.091223   0.000000
     8  C    1.356361   2.112636   0.000000
     9  H    2.110388   3.075576   1.091404   0.000000
[...]
 4247,-0.0001926,-0.0040265,0.0000478,0.0316273,0.3450622,-0.0049679,-0
 .1267616,-0.0049679,-0.072932,0.0015064,0.2140845,-0.0025441,0.0254945
 ,-0.0262115,0.0015966,-0.0179215,0.0015966,0.1081284,0.000213,-0.11288
 09,0.0013414,-0.0826915,-0.050217,-0.0007199,0.0568742,-0.0007199,-0.1
 107888,-0.0006759,-0.0755039,0.0008972,0.1220991,-0.0327278,0.001725,-
 0.0503732,0.0017251,0.112416,0.0005986,-0.0736956,0.0008758,-0.0748216
 ,0.1157684,-0.0027099,0.0234898,-0.0027099,-0.1122375,-0.0002791,0.119
 9761,-0.0014257,0.1219126,-0.0331704,0.0017137,-0.0460717,0.0017137,0.
 1110169,0.0005475,-0.095001,0.0011289,-0.0743528,0.1104736,-0.002331,-
 0.0679645,-0.002331,-0.0856501,0.0008077,0.0597815,-0.0007104,0.007186
 ,-0.0241738,0.0015468,-0.0367019,0.0015468,0.1059758,0.0004361,-0.0860
 393,0.0010224,-0.0676511,-0.0315815,-0.0011418,0.1712507,-0.0011418,-0
 .1276528,-0.002035,0.4029604,-0.0047886,0.0282568,-0.019609,0.0015655,
 -0.0888387,0.0015655,0.1121116,0.0010557,-0.071918,0.0008546,-0.079130
 7,0.3585181,-0.0053069,-0.1476665,-0.0053069,-0.0880012,0.0017548,-0.4
 180823,0.0049683,0.2129568,-0.0239407,0.0015953,0.0586034,0.0015953,0.
 1102897,-0.0006964,0.1016839,-0.0012084,-0.1314526,-0.2730994,-0.00023
 48,0.0344651,-0.0002348,-0.2928573,-0.0004096,-0.0538461,0.0006399,0.0
 163585,0.0303253,0.0012455,0.0681559,0.0012455,0.1351195,-0.0008099,0.
 0299826,-0.0003563,-0.080725,-0.1144945,0.0029442,0.0210936,0.0029442,
 0.1332274,-0.0002507,0.0189466,-0.0002252,0.0537673\Polar=211.6834657,
 -2.1695656,29.1385931,-59.2220655,0.7037612,110.5720166\PG=CS [SG(C8H1
 0)]\NImag=1\\0.71761508,-0.00732526,0.10127602,-0.08809794,0.00104690,
 0.76670008,-0.10926597,0.00090290,-0.10793136,0.10518726,0.00090290,-0
 .03329680,0.00128260,-0.00098931,0.02194750,-0.10431021,0.00123956,-0.
 28916219,0.11359540,-0.00134990,0.30982110,-0.34480184,0.00372648,-0.0
 1684774,-0.00765377,0.00011736,0.00123743,0.36464412,0.00372648,-0.031
 25999,0.00020021,0.00011736,0.00222083,-0.00001470,-0.00408027,0.02133
 444,-0.02141973,0.00025454,-0.06003210,-0.02640740,0.00031381,0.001790
 85,0.01625656,-0.00019318,0.05539503,-0.23640682,0.00222587,0.17716675
 ,0.01179653,-0.00008558,-0.01315350,-0.01360758,0.00021083,0.02902811,
 0.65755487,0.00222587,-0.04912493,-0.00210535,-0.00008558,0.00459576,0
 .00015631,0.00021083,0.00413144,-0.00034495,-0.00624502,0.13210605,0.1
 9241315,-0.00228653,-0.40152755,0.01696639,-0.00020162,-0.02210917,-0.
 00395666,0.00004702,0.00526312,-0.08278490,0.00098377,0.79736606,0.011
 20278,-0.00007211,0.01850301,-0.00139415,0.00014881,0.00335728,0.00109
 050,-0.00009603,-0.00010975,-0.11324865,0.00085010,-0.10860161,0.11868
 074,-0.00007211,0.00513515,-0.00021988,0.00014881,0.01112638,-0.000039
 90,-0.00009603,-0.00698921,0.00000130,0.00085010,-0.04172201,0.0012905
 6,-0.00108498,0.02739180,-0.01342324,0.00015951,-0.02250044,0.00306947
 ,-0.00003648,-0.00252284,0.00026950,-0.00000320,0.00129624,-0.10730831
 ,0.00127519,-0.27227461,0.11572078,-0.00137516,0.29329056,-0.03833117,
 0.00053134,0.02663587,0.00140606,-0.00010550,-0.00246739,0.00079815,0.
 00013095,0.00082293,-0.26112681,0.00237065,-0.02861209,-0.01285562,0.0
 0018803,0.00056796,0.65979730,0.00053134,0.00637531,-0.00031653,-0.000
 10550,-0.00747054,0.00002932,0.00013095,0.01181604,-0.00000978,0.00237
 065,-0.06166323,0.00034001,0.00018803,0.00296467,-0.00000675,-0.006303
 95,0.12938965,0.04064988,-0.00048306,-0.00336499,0.00151309,-0.0000179
 8,0.00141716,0.00315735,-0.00003752,-0.00442653,-0.02643141,0.00031410
 ,-0.10038431,-0.02973075,0.00035330,0.00035536,-0.06623653,0.00078712,
 0.76994282,0.00162468,-0.00003734,-0.00132351,-0.00000416,0.00000354,0
 .00134476,0.00033629,-0.00000731,0.00042243,-0.01231639,0.00018090,-0.
 02949595,-0.00527530,0.00010528,0.00044970,-0.11419679,0.00088933,-0.1
 0854981,0.11933246,-0.00003734,-0.00151681,0.00001573,0.00000354,0.000
 29377,-0.00001598,-0.00000731,-0.00027883,-0.00000502,0.00018090,0.002
 90421,0.00035051,0.00010528,0.00358317,-0.00000534,0.00088933,-0.03936
 986,0.00128994,-0.00111580,0.02545012,0.00087216,-0.00001036,0.0012018
 1,-0.00055402,0.00000658,0.00030594,-0.00009157,0.00000109,0.00020672,
 0.00092740,-0.00001102,0.00068863,0.00062738,-0.00000746,0.00067530,-0
 .10708208,0.00127250,-0.27078301,0.11672338,-0.00138707,0.29159349,0.0
 0233111,0.00000167,-0.01192903,0.00009536,-0.00000181,0.00054139,-0.00
 074049,0.00001117,0.00123861,-0.04516170,0.00059074,0.04333573,0.00163
 426,-0.00003847,0.00118700,-0.20194706,0.00177064,0.15210273,0.0110740
 5,-0.00007397,-0.01378928,0.66323025,0.00000167,0.00247166,0.00014176,
 -0.00000181,-0.00005663,-0.00000643,0.00001117,0.00019973,-0.00001472,
 0.00059074,0.00454287,-0.00051498,-0.00003847,-0.00160228,-0.00001411,
 0.00177064,-0.05296740,-0.00180750,-0.00007397,0.00485058,0.00016386,-
 0.00633378,0.13031286,-0.00899277,0.00010686,0.00751946,0.00004341,-0.
 00000052,0.00021213,-0.00036387,0.00000432,0.00090724,0.02494151,-0.00
 029639,-0.00342086,-0.00192698,0.00002290,0.00089649,0.15520271,-0.001
 84434,-0.37532116,0.01653417,-0.00019648,-0.02315035,-0.06365902,0.000
 75649,0.76883520,0.00008985,0.00000012,-0.00001050,-0.00013052,0.00000
 550,-0.00014473,0.00000101,0.00000187,-0.00009393,0.00113757,-0.000087
 42,0.00178690,-0.00001069,0.00000280,-0.00052639,0.01101566,-0.0000731
 5,0.01637170,-0.00163070,0.00013126,0.00292907,-0.11487085,0.00088676,
 -0.10840722,0.12050795,0.00000012,0.00010011,0.00000012,0.00000550,0.0
 0033245,0.00000172,0.00000187,0.00015865,0.00000112,-0.00008742,-0.006
 21767,-0.00002123,0.00000280,0.00022458,0.00000626,-0.00007315,0.00486
 075,-0.00019455,0.00013126,0.00941315,-0.00003481,0.00088676,-0.040259
 85,0.00128825,-0.00112048,0.02623233,0.00046316,-0.00000550,0.00033376
 ,-0.00016117,0.00000192,0.00024016,0.00007285,-0.00000087,-0.00000293,
 -0.00239272,0.00002843,0.00104929,0.00141959,-0.00001687,0.00046453,-0
 .01384515,0.00016453,-0.02337630,0.00292945,-0.00003481,-0.00282288,-0
 .10721716,0.00127411,-0.26901319,0.11684254,-0.00138849,0.29015251,-0.
 00417336,0.00004938,0.00566422,-0.00005595,0.00000489,-0.00007999,0.00
 008029,-0.00001870,0.00011274,0.01478442,-0.00003771,-0.00525839,-0.00
 003913,-0.00000190,0.00001151,-0.04750803,0.00062138,0.02809155,0.0011
 7146,-0.00008692,-0.00239545,-0.26787794,0.00248773,-0.02901252,-0.012
 80106,0.00018737,0.00059736,0.65789123,0.00004938,-0.00001869,-0.00006
 731,0.00000489,0.00035570,0.00000095,-0.00001870,-0.00149344,-0.000001
 34,-0.00003771,0.01161149,0.00006249,-0.00000190,-0.00019891,-0.000000
 14,0.00062138,0.00477410,-0.00033382,-0.00008692,-0.00614199,0.0000284
 7,0.00248773,-0.05856335,0.00034477,0.00018737,0.00296367,-0.00000710,
 -0.00626146,0.13105887,0.00399828,-0.00004751,-0.00149075,-0.00008243,
 0.00000098,0.00004209,0.00025581,-0.00000304,-0.00045822,-0.00578549,0
 .00006875,-0.00338457,0.00050145,-0.00000596,0.00052943,0.04463192,-0.
 00053038,-0.00476085,0.00166970,-0.00001984,0.00113144,-0.02983159,0.0
 0035450,-0.09834929,-0.02934022,0.00034866,0.00065293,-0.05944107,0.00
 070636,0.77459958,-0.00007043,0.00000048,0.00007177,-0.00003980,0.0000
 0063,0.00004792,0.00001045,0.00000006,0.00000404,-0.00000846,-0.000002
 66,0.00047350,0.00028964,-0.00000236,0.00013733,0.00159825,-0.00004054
 ,-0.00187649,-0.00001899,0.00000373,0.00140092,-0.01281784,0.00019126,
 -0.02968836,-0.00516004,0.00010790,0.00052687,-0.11408883,0.00085886,-
 0.10742554,0.12062548,0.00000048,-0.00003031,-0.00000085,0.00000063,0.
 00001334,-0.00000057,0.00000006,0.00001575,-0.00000005,-0.00000266,-0.
 00023228,-0.00000563,-0.00000236,0.00009147,-0.00000163,-0.00004054,-0
 .00181254,0.00002230,0.00000373,0.00029510,-0.00001665,0.00019126,0.00
 327475,0.00035280,0.00010790,0.00391835,-0.00000626,0.00085886,-0.0418
 2519,0.00127658,-0.00113193,0.02538599,-0.00012138,0.00000144,-0.00007
 005,-0.00000195,0.00000002,0.00000108,-0.00001593,0.00000019,0.0000168
 7,0.00003031,-0.00000036,0.00047604,0.00013027,-0.00000155,-0.00014704
 ,0.00123392,-0.00001466,0.00093586,-0.00048918,0.00000581,0.00042711,0
 .00055223,-0.00000656,0.00055009,0.00051654,-0.00000614,0.00059476,-0.
 10744615,0.00127683,-0.27169619,0.11763384,-0.00139789,0.29255459,0.00
 120675,-0.00001576,-0.00301557,0.00006339,-0.00000049,0.00005598,-0.00
 015339,0.00000149,0.00011123,-0.00617252,0.00007378,0.00461417,-0.0000
 4049,0.00000017,-0.00010532,0.00659300,-0.00004244,-0.01306304,0.00013
 080,-0.00000038,0.00053717,-0.04842760,0.00064179,0.04518059,0.0014699
 1,-0.00003948,0.00141826,-0.19630918,0.00167766,0.15104194,0.01349552,
 -0.00009559,-0.01407459,0.64531140,-0.00001576,-0.00011899,0.00003584,
 -0.00000049,0.00002228,-0.00000067,0.00000149,-0.00002764,-0.00000132,
 0.00007378,0.00003553,-0.00005483,0.00000017,-0.00002615,0.00000125,-0
 .00004244,0.00302201,0.00015523,-0.00000038,0.00009847,-0.00000638,0.0
 0064179,0.00557215,-0.00053690,-0.00003948,-0.00185176,-0.00001685,0.0
 0167766,-0.05515245,-0.00179490,-0.00009559,0.00545261,0.00016725,-0.0
 0614748,0.12806936,-0.00200680,0.00002385,0.00254816,-0.00004808,0.000
 00057,-0.00005189,0.00002634,-0.00000031,0.00005952,0.00579186,-0.0000
 6883,-0.00171002,0.00008798,-0.00000105,-0.00003580,-0.01315224,0.0001
 5629,0.00952933,0.00004098,-0.00000049,0.00023390,0.03101619,-0.000368
 58,-0.00746439,-0.00194364,0.00002310,0.00109917,0.14947915,-0.0017763
 2,-0.37607948,0.01586356,-0.00018851,-0.02302852,-0.06687391,0.0007946
 9,0.75864890,0.00008515,-0.00000080,-0.00004285,0.00000294,0.00000016,
 -0.00000469,0.00000773,-0.00000116,-0.00000700,-0.00010643,0.00000493,
 -0.00009558,-0.00003270,0.00000050,0.00000277,0.00022675,-0.00000327,0
 .00006961,-0.00016015,0.00000634,-0.00013650,0.00086276,-0.00009234,0.
 00215686,0.00007938,0.00000213,-0.00051030,0.01109022,-0.00006992,0.01
 605196,-0.00154917,0.00014105,0.00289948,-0.12151061,0.00098753,-0.113
 82306,0.13040684,-0.00000080,0.00001762,0.00000051,0.00000016,0.000016
 13,0.00000006,-0.00000116,-0.00008966,0.00000008,0.00000493,0.00030821
 ,0.00000114,0.00000050,0.00000963,-0.00000003,-0.00000327,-0.00004830,
 -0.00000083,0.00000634,0.00037338,0.00000162,-0.00009234,-0.00690684,-
 0.00002563,0.00000213,0.00025898,0.00000606,-0.00006992,0.00520694,-0.
 00019075,0.00014105,0.01031855,-0.00003446,0.00098753,-0.03842099,0.00
 135261,-0.00125216,0.02505175,0.00003075,-0.00000037,-0.00001845,-0.00
 000502,0.00000006,0.00001119,0.00000444,-0.00000005,-0.00000506,-0.000
 03541,0.00000042,0.00000687,0.00005822,-0.00000069,0.00000501,0.000560
 99,-0.00000667,0.00032130,-0.00015418,0.00000183,0.00027679,-0.0025346
 2,0.00003012,0.00109175,0.00150862,-0.00001793,0.00044282,-0.01453440,
 0.00017272,-0.02518953,0.00322759,-0.00003835,-0.00295422,-0.11402044,
 0.00135495,-0.26467837,0.12108790,-0.00143894,0.28514949,-0.00090935,0
 .00001053,0.00175544,-0.00003313,-0.00000087,-0.00004114,0.00007006,0.
 00000254,-0.00002178,0.00353595,-0.00005847,-0.00189949,0.00005205,-0.
 00000044,0.00003497,-0.00659131,0.00008217,0.00629981,-0.00006665,0.00
 000117,-0.00006238,0.01653841,-0.00007612,-0.00581494,0.00027226,-0.00
 000578,-0.00019205,-0.04372626,0.00057471,0.02697000,-0.00057588,-0.00
 006286,-0.00142015,-0.24285498,0.00218081,-0.01573840,-0.01452484,0.00
 020842,0.00407161,0.66498003,0.00001053,-0.00002323,-0.00002086,-0.000
 00087,-0.00010614,0.00000049,0.00000254,0.00028340,0.00000026,-0.00005
 847,-0.00138373,0.00002257,-0.00000044,0.00001491,-0.00000042,0.000082
 17,0.00032268,-0.00007486,0.00000117,0.00003209,0.00000074,-0.00007612
 ,0.01013381,0.00006910,-0.00000578,-0.00021417,0.00000228,0.00057471,0
 .00462958,-0.00032050,-0.00006286,-0.00586491,0.00001688,0.00218081,-0
 .05936378,0.00018703,0.00020842,0.00301134,-0.00004838,-0.00635630,0.1
 3016805,-0.00070513,0.00000838,0.00050995,-0.00000041,0.,-0.00000891,-
 0.00001461,0.00000017,0.00001311,0.00166100,-0.00001974,-0.00049173,-0
 .00005306,0.00000063,-0.00006683,-0.00100179,0.00001190,0.00204273,-0.
 00012275,0.00000146,-0.00001042,0.00493383,-0.00005863,-0.00570634,0.0
 0033758,-0.00000401,0.00017144,0.02273705,-0.00027019,0.00980456,-0.00
 084799,0.00001008,0.00100009,0.03169434,-0.00037664,-0.11308451,-0.029
 47435,0.00035026,0.00334239,0.09957811,-0.00118333,0.76504528,-0.00014
 801,0.00000189,0.00000734,0.00000584,-0.00000002,0.00000074,-0.0000221
 9,0.00000025,0.00002244,0.00014202,-0.00000170,0.00017674,-0.00000991,
 0.00000013,-0.00001970,-0.00062081,0.00000510,-0.00011894,0.00001273,-
 0.00000004,0.00000702,0.00027588,-0.00000255,0.00139601,-0.00003619,0.
 00000091,-0.00006724,-0.00589648,0.00009918,-0.00222616,0.00018741,-0.
 00000370,0.00008569,-0.01154131,0.00017206,0.03146336,0.00092213,-0.00
 002286,-0.00017315,-0.09457242,0.00063831,0.09296752,0.10221298,0.0000
 0189,0.00001086,-0.00000009,-0.00000002,0.00000411,0.,0.00000025,-0.00
 000130,-0.00000027,-0.00000170,-0.00000132,-0.00000210,0.00000013,0.00
 000101,0.00000023,0.00000510,-0.00019163,0.00000141,-0.00000004,0.0000
 0963,-0.00000008,-0.00000255,0.00006140,-0.00001659,0.00000091,0.00004
 069,0.00000080,0.00009918,0.00244869,0.00002645,-0.00000370,-0.0001239
 3,-0.00000102,0.00017206,0.00293595,-0.00037389,-0.00002286,-0.0010010
 5,0.00000206,0.00063831,-0.04086576,-0.00110477,-0.00089281,0.02709256
 ,0.00008303,-0.00000099,0.00001114,-0.00000417,0.00000005,0.00000134,0
 .00001478,-0.00000018,-0.00000910,-0.00007266,0.00000086,-0.00009602,0
 .00001259,-0.00000015,0.00001795,0.00011050,-0.00000131,0.00010652,-0.
 00001012,0.00000012,0.00001065,-0.00011271,0.00000134,-0.00023918,0.00
 005864,-0.00000070,0.00002198,0.00017309,-0.00000206,0.00135489,-0.000
 21906,0.00000260,0.00013624,-0.00197695,0.00002349,-0.00049587,0.00019
 433,-0.00000231,0.00117463,0.09316017,-0.00110706,-0.29276265,-0.09742
 786,0.00115778,0.31445466,-0.00001490,0.00000048,-0.00059876,0.0000192
 8,-0.00000038,0.00002025,-0.00005488,0.00000041,0.00003754,-0.00082537
 ,0.00001122,0.00089817,-0.00004224,0.00000033,-0.00005970,0.00178888,-
 0.00002088,-0.00219905,0.00000062,-0.00000089,0.00007163,-0.00417995,0
 .00004195,0.00205490,-0.00002587,0.00000021,0.00010099,0.00745865,-0.0
 0008110,-0.00984029,-0.00047870,0.00000969,0.00023506,-0.04206675,0.00
 057576,-0.01782816,-0.00505324,0.00008269,0.00058458,-0.27747378,0.002
 70607,-0.20710086,0.01004231,-0.00005799,0.00963569,0.73025691,0.00000
 048,0.00002547,0.00000712,-0.00000038,-0.00001255,-0.00000024,0.000000
 41,-0.00002049,-0.00000045,0.00001122,0.00011871,-0.00001067,0.0000003
 3,-0.00001436,0.00000071,-0.00002088,0.00003198,0.00002613,-0.00000089
 ,-0.00007451,-0.00000085,0.00004195,-0.00064996,-0.00002442,0.00000021
 ,-0.00000856,-0.00000120,-0.00008110,0.00063497,0.00011694,0.00000969,
 0.00033666,-0.00000279,0.00057576,0.00637694,0.00021186,0.00008269,0.0
 0190410,-0.00000695,0.00270607,-0.04978817,0.00246107,-0.00005799,0.00
 516338,-0.00011451,-0.00748877,0.10015983,0.00060585,-0.00000720,-0.00
 063227,0.00001083,-0.00000013,0.00000725,-0.00000781,0.00000009,-0.000
 01909,-0.00160043,0.00001902,0.00046105,-0.00000077,0.,0.00002256,0.00
 277486,-0.00003297,-0.00210316,0.00006745,-0.00000080,-0.00003571,-0.0
 0567756,0.00006747,0.00145206,-0.00021401,0.00000254,-0.00001381,0.011
 46442,-0.00013624,-0.00525291,0.00085051,-0.00001011,-0.00035616,-0.02
 215034,0.00026322,0.01676616,0.00290815,-0.00003456,0.00090867,-0.1885
 5117,0.00224064,-0.35621244,-0.02250517,0.00026744,-0.02322727,0.08969
 728,-0.00106591,0.75129460,0.00003212,-0.00000057,-0.00001228,-0.00000
 263,-0.00000014,-0.00000041,0.00000660,0.00000035,-0.00000427,-0.00004
 343,-0.00000096,-0.00000376,0.00000350,0.00000004,0.00000186,0.0000314
 8,0.00000013,-0.00004414,-0.00001368,0.00000037,0.00001191,-0.00006880
 ,0.00000166,0.00032609,0.00008529,-0.00000084,0.00000818,-0.00029568,0
 .00000627,-0.00101007,-0.00154154,0.00003095,0.00026502,0.00002894,-0.
 00008769,0.00104848,0.00021844,-0.00000423,0.00020852,0.01277971,-0.00
 009233,-0.02065879,-0.00208453,0.00016953,-0.00337372,-0.08447423,0.00
 059018,0.07953281,0.07978649,-0.00000057,-0.00001611,0.00000015,-0.000
 00014,-0.00001448,0.,0.00000035,0.00003644,0.00000005,-0.00000096,-0.0
 0012385,0.00000004,0.00000004,0.00000687,-0.00000002,0.00000013,0.0000
 4209,0.00000052,0.00000037,0.00001747,-0.00000014,0.00000166,0.0000708
 6,-0.00000388,-0.00000084,0.00001435,-0.00000010,0.00000627,0.00023157
 ,0.00001200,0.00003095,0.00106266,-0.00000315,-0.00008769,-0.00734886,
 -0.00001246,-0.00000423,-0.00013731,-0.00000248,-0.00009233,0.00501120
 ,0.00024550,0.00016953,0.01217963,0.00004009,0.00059018,-0.03481712,-0
 .00094512,-0.00069699,0.02114209,-0.00001519,0.00000018,-0.00000039,-0
 .00000173,0.00000002,0.00000215,0.00000422,-0.00000005,0.00000025,0.00
 001979,-0.00000024,0.00002054,0.00000324,-0.00000004,-0.00000118,-0.00
 011688,0.00000139,-0.00001787,-0.00001815,0.00000022,0.00002380,0.0000
 1407,-0.00000017,0.00064573,0.00018824,-0.00000224,-0.00000066,-0.0003
 3734,0.00000401,-0.00047115,-0.00003254,0.00000039,0.00103633,0.001974
 52,-0.00002346,0.00087071,-0.00011929,0.00000142,0.00009595,0.00880534
 ,-0.00010464,-0.02074360,-0.00341797,0.00004062,-0.00179552,0.07703621
 ,-0.00091545,-0.31457341,-0.08368994,0.00099452,0.33681673,-0.00006566
 ,0.00000070,0.00000513,0.00000340,0.00000030,0.00000092,-0.00001107,-0
 .00000030,0.00000721,0.00007279,0.00000050,0.00004367,-0.00000458,0.00
 000009,-0.00001018,-0.00007793,0.00000003,-0.00000556,-0.00000029,0.00
 000073,0.00000326,0.00005015,-0.00000635,0.00002943,0.00000704,0.00000
 032,0.00000654,0.00029563,-0.00000971,-0.00013821,0.00014294,-0.000004
 98,-0.00001302,0.00077712,0.00011824,-0.00340359,-0.00096521,0.0000129
 9,0.00011400,-0.01689986,0.00024843,0.00607032,0.00113055,-0.00010570,
 -0.00024560,-0.33487675,0.00363102,0.05279511,-0.00444806,0.00008427,-
 0.00029660,0.35486977,0.00000070,-0.00000635,-0.00000006,0.00000030,0.
 00002888,-0.00000001,-0.00000030,-0.00003617,-0.00000009,0.00000050,0.
 00011477,-0.00000052,0.00000009,0.00000328,0.00000012,0.00000003,-0.00
 007579,0.00000007,0.00000073,0.00006084,-0.00000004,-0.00000635,-0.000
 48435,-0.00000035,0.00000032,0.00003397,-0.00000008,-0.00000971,-0.000
 52157,0.00000164,-0.00000498,-0.00027608,0.00000015,0.00011824,0.01072
 533,0.00004045,0.00001299,0.00012750,-0.00000135,0.00024843,0.00400285
 ,-0.00007214,-0.00010570,-0.00776292,0.00000292,0.00363102,-0.02936632
 ,-0.00062739,0.00008427,0.00264251,0.00000352,-0.00397058,0.02078963,-
 0.00002385,0.00000028,-0.00002517,-0.00000084,0.,0.00000257,-0.0000010
 9,0.00000001,0.00000409,-0.00000191,0.00000002,0.00006727,0.00000114,-
 0.00000001,-0.00000470,-0.00002752,0.00000033,-0.00011289,-0.00001837,
 0.00000022,0.00002680,-0.00017083,0.00000203,0.00055464,0.00014080,-0.
 00000167,0.00000643,0.00017422,-0.00000207,-0.00098199,-0.00014786,0.0
 0000176,0.00052313,-0.00134806,0.00001602,-0.00312700,-0.00115744,0.00
 001375,0.00001878,-0.02693395,0.00032007,0.00715788,-0.00017068,0.0000
 0203,0.00133561,0.05725453,-0.00068038,-0.06848613,0.02739451,-0.00032
 554,-0.00190840,-0.05496280,0.00065315,0.06494908\\0.00001577,-0.00000
 019,-0.00001934,0.00000915,-0.00000011,0.00000598,0.00000800,-0.000000
 10,0.00000401,-0.00004968,0.00000059,0.00001655,0.00000431,-0.00000005
 ,-0.00000971,0.00005874,-0.00000070,-0.00005555,0.00000151,-0.00000002
 ,0.00002249,-0.00007467,0.00000089,0.00005436,-0.00000259,0.00000003,-
 0.00002062,0.00008165,-0.00000097,-0.00005653,-0.00001602,0.00000019,0
 .00000845,-0.00001041,0.00000012,0.00007956,0.00000944,-0.00000011,-0.
 00000992,0.00002569,-0.00000031,0.00003481,-0.00002364,0.00000028,-0.0
 0000121,-0.00003219,0.00000038,-0.00003942,0.00000137,-0.00000002,-0.0
 0001360,-0.00000642,0.00000008,-0.00000030\\\@


 COLLEGE PROFESSOR: SOMEONE WHO TALKS IN OTHER PEOPLE'S SLEEP.
 Job cpu time:  0 days  0 hours  3 minutes 34.8 seconds.
 File lengths (MBytes):  RWF=     49 Int=      0 D2E=      0 Chk=      3 Scr=      1
 Normal termination of Gaussian 09 at Tue Mar  2 15:34:05 2021.
