 Entering Gaussian System, Link 0=g09
 Input=transcishex.com
 Output=transcishex.log
 Initial command:
 /home/student/g09/l1.exe /home/student/singh/other/Gau-22703.inp -scrdir=/home/student/singh/other/
 Entering Link 1 = /home/student/g09/l1.exe PID=     22705.
  
 Copyright (c) 1988,1990,1992,1993,1995,1998,2003,2009,2011,
            Gaussian, Inc.  All Rights Reserved.
  
 This is part of the Gaussian(R) 09 program.  It is based on
 the Gaussian(R) 03 system (copyright 2003, Gaussian, Inc.),
 the Gaussian(R) 98 system (copyright 1998, Gaussian, Inc.),
 the Gaussian(R) 94 system (copyright 1995, Gaussian, Inc.),
 the Gaussian 92(TM) system (copyright 1992, Gaussian, Inc.),
 the Gaussian 90(TM) system (copyright 1990, Gaussian, Inc.),
 the Gaussian 88(TM) system (copyright 1988, Gaussian, Inc.),
 the Gaussian 86(TM) system (copyright 1986, Carnegie Mellon
 University), and the Gaussian 82(TM) system (copyright 1983,
 Carnegie Mellon University). Gaussian is a federally registered
 trademark of Gaussian, Inc.
  
 This software contains proprietary and confidential information,
 including trade secrets, belonging to Gaussian, Inc.
  
 This software is provided under written license and may be
 used, copied, transmitted, or stored only in accord with that
 written license.
  
 The following legend is applicable only to US Government
 contracts under FAR:
  
                    RESTRICTED RIGHTS LEGEND
  
 Use, reproduction and disclosure by the US Government is
 subject to restrictions as set forth in subparagraphs (a)
 and (c) of the Commercial Computer Software - Restricted
 Rights clause in FAR 52.227-19.
  
 Gaussian, Inc.
 340 Quinnipiac St., Bldg. 40, Wallingford CT 06492
  
  
 ---------------------------------------------------------------
 Warning -- This program may not be used in any manner that
 competes with the business of Gaussian, Inc. or will provide
 assistance to any competitor of Gaussian, Inc.  The licensee
 of this program is prohibited from giving any competitor of
 Gaussian, Inc. access to this program.  By using this program,
 the user acknowledges that Gaussian, Inc. is engaged in the
 business of creating and licensing software in the field of
 computational chemistry and represents and warrants to the
 licensee that it is not a competitor of Gaussian, Inc. and that
 it will not use this program in any manner prohibited above.
 ---------------------------------------------------------------
  

 Cite this work as:
 Gaussian 09, Revision C.01,
 M. J. Frisch, G. W. Trucks, H. B. Schlegel, G. E. Scuseria, 
 M. A. Robb, J. R. Cheeseman, G. Scalmani, V. Barone, B. Mennucci, 
 G. A. Petersson, H. Nakatsuji, M. Caricato, X. Li, H. P. Hratchian, 
 A. F. Izmaylov, J. Bloino, G. Zheng, J. L. Sonnenberg, M. Hada, 
 M. Ehara, K. Toyota, R. Fukuda, J. Hasegawa, M. Ishida, T. Nakajima, 
 Y. Honda, O. Kitao, H. Nakai, T. Vreven, J. A. Montgomery, Jr., 
 J. E. Peralta, F. Ogliaro, M. Bearpark, J. J. Heyd, E. Brothers, 
 K. N. Kudin, V. N. Staroverov, T. Keith, R. Kobayashi, J. Normand, 
 K. Raghavachari, A. Rendell, J. C. Burant, S. S. Iyengar, J. Tomasi, 
 M. Cossi, N. Rega, J. M. Millam, M. Klene, J. E. Knox, J. B. Cross, 
 V. Bakken, C. Adamo, J. Jaramillo, R. Gomperts, R. E. Stratmann, 
 O. Yazyev, A. J. Austin, R. Cammi, C. Pomelli, J. W. Ochterski, 
 R. L. Martin, K. Morokuma, V. G. Zakrzewski, G. A. Voth, 
 P. Salvador, J. J. Dannenberg, S. Dapprich, A. D. Daniels, 
 O. Farkas, J. B. Foresman, J. V. Ortiz, J. Cioslowski, 
 and D. J. Fox, Gaussian, Inc., Wallingford CT, 2010.
 
 ******************************************
 Gaussian 09:  EM64L-G09RevC.01 23-Sep-2011
                 2-Mar-2021 
 ******************************************
 %chk=transcishex.chk
 -----------------------------------------
 # opt freq b3lyp/6-31g* geom=connectivity
 -----------------------------------------
 1/14=-1,18=20,19=15,26=3,38=1,57=2/1,3;
 2/9=110,12=2,17=6,18=5,40=1/2;
 3/5=1,6=6,7=1,11=2,16=1,25=1,30=1,71=1,74=-5/1,2,3;
 4//1;
 5/5=2,38=5/2;
 6/7=2,8=2,9=2,10=2,28=1/1;
 7//1,2,3,16;
 1/14=-1,18=20,19=15/3(2);
 2/9=110/2;
 99//99;
 2/9=110/2;
 3/5=1,6=6,7=1,11=2,16=1,25=1,30=1,71=1,74=-5/1,2,3;
 4/5=5,16=3/1;
 5/5=2,38=5/2;
 7//1,2,3,16;
 1/14=-1,18=20,19=15/3(-5);
 2/9=110/2;
 6/7=2,8=2,9=2,10=2,19=2,28=1/1;
 99/9=1/99;
 -------------------
 Title Card Required
 -------------------
 Charge =  0 Multiplicity = 1
 Symbolic Z-Matrix:
 C                    -4.48981   2.00321  -2.358 
 H                    -3.95151   1.9393   -3.28052 
 H                    -5.55977   2.00915  -2.36434 
 C                    -3.82108   2.07665  -1.18157 
 H                    -4.35937   2.14056  -0.25905 
 C                    -2.28113   2.0681   -1.17244 
 H                    -1.74283   2.0042   -2.09497 
 C                    -1.60541   2.14124   0. 
 H                    -2.1382    2.20533   0.9257 
 C                    -0.06543   2.13209   0. 
 H                     0.46736   2.06801   0.9257 
 C                     0.61725   2.20493  -1.16842 
 H                     0.08998   2.26919  -2.09726 
 H                     1.68721   2.19815  -1.16207 
 

 GradGradGradGradGradGradGradGradGradGradGradGradGradGradGradGradGradGrad
 Berny optimization.
 Initialization pass.
                           ----------------------------
                           !    Initial Parameters    !
                           ! (Angstroms and Degrees)  !
 --------------------------                            --------------------------
 ! Name  Definition              Value          Derivative Info.                !
 --------------------------------------------------------------------------------
 ! R1    R(1,2)                  1.07           estimate D2E/DX2                !
 ! R2    R(1,3)                  1.07           estimate D2E/DX2                !
 ! R3    R(1,4)                  1.3552         estimate D2E/DX2                !
 ! R4    R(4,5)                  1.07           estimate D2E/DX2                !
 ! R5    R(4,6)                  1.54           estimate D2E/DX2                !
 ! R6    R(6,7)                  1.07           estimate D2E/DX2                !
 ! R7    R(6,8)                  1.3552         estimate D2E/DX2                !
 ! R8    R(8,9)                  1.07           estimate D2E/DX2                !
 ! R9    R(8,10)                 1.54           estimate D2E/DX2                !
 ! R10   R(10,11)                1.07           estimate D2E/DX2                !
 ! R11   R(10,12)                1.3552         estimate D2E/DX2                !
 ! R12   R(12,13)                1.07           estimate D2E/DX2                !
 ! R13   R(12,14)                1.07           estimate D2E/DX2                !
 ! A1    A(2,1,3)              119.8865         estimate D2E/DX2                !
 ! A2    A(2,1,4)              120.2269         estimate D2E/DX2                !
 ! A3    A(3,1,4)              119.8865         estimate D2E/DX2                !
 ! A4    A(1,4,5)              120.2269         estimate D2E/DX2                !
 ! A5    A(1,4,6)              119.8865         estimate D2E/DX2                !
 ! A6    A(5,4,6)              119.8865         estimate D2E/DX2                !
 ! A7    A(4,6,7)              119.8865         estimate D2E/DX2                !
 ! A8    A(4,6,8)              120.2269         estimate D2E/DX2                !
 ! A9    A(7,6,8)              119.8865         estimate D2E/DX2                !
 ! A10   A(6,8,9)              120.2269         estimate D2E/DX2                !
 ! A11   A(6,8,10)             119.8865         estimate D2E/DX2                !
 ! A12   A(9,8,10)             119.8865         estimate D2E/DX2                !
 ! A13   A(8,10,11)            119.8865         estimate D2E/DX2                !
 ! A14   A(8,10,12)            120.2269         estimate D2E/DX2                !
 ! A15   A(11,10,12)           119.8865         estimate D2E/DX2                !
 ! A16   A(10,12,13)           120.2269         estimate D2E/DX2                !
 ! A17   A(10,12,14)           119.8865         estimate D2E/DX2                !
 ! A18   A(13,12,14)           119.8865         estimate D2E/DX2                !
 ! D1    D(2,1,4,5)           -180.0            estimate D2E/DX2                !
 ! D2    D(2,1,4,6)              0.0            estimate D2E/DX2                !
 ! D3    D(3,1,4,5)              0.0            estimate D2E/DX2                !
 ! D4    D(3,1,4,6)            180.0            estimate D2E/DX2                !
 ! D5    D(1,4,6,7)              0.0            estimate D2E/DX2                !
 ! D6    D(1,4,6,8)            180.0            estimate D2E/DX2                !
 ! D7    D(5,4,6,7)            180.0            estimate D2E/DX2                !
 ! D8    D(5,4,6,8)              0.0            estimate D2E/DX2                !
 ! D9    D(4,6,8,9)              0.0            estimate D2E/DX2                !
 ! D10   D(4,6,8,10)           180.0            estimate D2E/DX2                !
 ! D11   D(7,6,8,9)            180.0            estimate D2E/DX2                !
 ! D12   D(7,6,8,10)             0.0            estimate D2E/DX2                !
 ! D13   D(6,8,10,11)         -172.47           estimate D2E/DX2                !
 ! D14   D(6,8,10,12)            7.53           estimate D2E/DX2                !
 ! D15   D(9,8,10,11)            7.53           estimate D2E/DX2                !
 ! D16   D(9,8,10,12)         -172.47           estimate D2E/DX2                !
 ! D17   D(8,10,12,13)           0.0            estimate D2E/DX2                !
 ! D18   D(8,10,12,14)         180.0            estimate D2E/DX2                !
 ! D19   D(11,10,12,13)        180.0            estimate D2E/DX2                !
 ! D20   D(11,10,12,14)          0.0            estimate D2E/DX2                !
 --------------------------------------------------------------------------------
 Trust Radius=3.00D-01 FncErr=1.00D-07 GrdErr=1.00D-06
 Number of steps in this run=     61 maximum allowed number of steps=    100.
 GradGradGradGradGradGradGradGradGradGradGradGradGradGradGradGradGradGrad

                          Input orientation:                          
 ---------------------------------------------------------------------
 Center     Atomic      Atomic             Coordinates (Angstroms)
 Number     Number       Type             X           Y           Z
 ---------------------------------------------------------------------
      1          6           0       -4.489806    2.003207   -2.357996
      2          1           0       -3.951510    1.939300   -3.280521
      3          1           0       -5.559771    2.009147   -2.364339
      4          6           0       -3.821076    2.076652   -1.181571
      5          1           0       -4.359372    2.140559   -0.259046
      6          6           0       -2.281127    2.068103   -1.172441
      7          1           0       -1.742831    2.004195   -2.094967
      8          6           0       -1.605406    2.141243    0.000000
      9          1           0       -2.138199    2.205327    0.925703
     10          6           0       -0.065434    2.132094    0.000000
     11          1           0        0.467359    2.068010    0.925703
     12          6           0        0.617255    2.204928   -1.168417
     13          1           0        0.089985    2.269186   -2.097265
     14          1           0        1.687214    2.198154   -1.162074
 ---------------------------------------------------------------------
                    Distance matrix (angstroms):
                    1          2          3          4          5
     1  C    0.000000
     2  H    1.070000   0.000000
     3  H    1.070000   1.852234   0.000000
     4  C    1.355200   2.107479   2.103938   0.000000
     5  H    2.107479   3.055514   2.427032   1.070000   0.000000
     6  C    2.507591   2.692725   3.489068   1.540000   2.271265
     7  H    2.759539   2.507591   3.826436   2.271265   3.199295
     8  C    3.728131   4.038168   4.609181   2.511867   2.766123
     9  H    4.043956   4.588157   4.750791   2.699859   2.518221
    10  C    5.015160   5.089261   5.982721   3.937517   4.301754
    11  H    5.946457   6.102072   6.866886   4.778217   4.970536
    12  C    5.247652   5.040352   6.294776   4.440204   5.059438
    13  H    4.594911   4.224050   5.662039   4.021438   4.815846
    14  H    6.294745   6.029099   7.348466   5.509665   6.113918
                    6          7          8          9         10
     6  C    0.000000
     7  H    1.070000   0.000000
     8  C    1.355200   2.103938   0.000000
     9  H    2.107479   3.053066   1.070000   0.000000
    10  C    2.507591   2.686802   1.540000   2.271265   0.000000
    11  H    3.457800   3.743455   2.271265   2.609174   1.070000
    12  C    2.901612   2.543382   2.511867   3.460905   1.355200
    13  H    2.553019   1.851875   2.699859   3.755957   2.107479
    14  H    3.970486   3.559933   3.492135   4.358056   2.103938
                   11         12         13         14
    11  H    0.000000
    12  C    2.103938   0.000000
    13  H    3.053066   1.070000   0.000000
    14  H    2.421527   1.070000   1.852234   0.000000
 Stoichiometry    C6H8
 Framework group  C1[X(C6H8)]
 Deg. of freedom    36
 Full point group                 C1      NOp   1
 Largest Abelian subgroup         C1      NOp   1
 Largest concise Abelian subgroup C1      NOp   1
                         Standard orientation:                         
 ---------------------------------------------------------------------
 Center     Atomic      Atomic             Coordinates (Angstroms)
 Number     Number       Type             X           Y           Z
 ---------------------------------------------------------------------
      1          6           0        2.832065    0.538876    0.014308
      2          1           0        2.588825    1.578946    0.077460
      3          1           0        3.856568    0.232007   -0.019254
      4          6           0        1.847018   -0.391089   -0.023316
      5          1           0        2.090259   -1.431159   -0.086469
      6          6           0        0.372501    0.050573    0.024987
      7          1           0        0.129260    1.090643    0.088140
      8          6           0       -0.618057   -0.873536   -0.012216
      9          1           0       -0.381011   -1.915036   -0.075353
     10          6           0       -2.089913   -0.423132    0.036544
     11          1           0       -2.867758   -1.152051    0.128928
     12          6           0       -2.403354    0.893261   -0.037153
     13          1           0       -1.629875    1.626800   -0.129618
     14          1           0       -3.427827    1.200134   -0.002757
 ---------------------------------------------------------------------
 Rotational constants (GHZ):     12.2351813      1.6074931      1.4217138
 Standard basis: 6-31G(d) (6D, 7F)
 There are   106 symmetry adapted basis functions of A   symmetry.
 Integral buffers will be    131072 words long.
 Raffenetti 2 integral format.
 Two-electron integral symmetry is turned on.
   106 basis functions,   200 primitive gaussians,   106 cartesian basis functions
    22 alpha electrons       22 beta electrons
       nuclear repulsion energy       194.8986625385 Hartrees.
 NAtoms=   14 NActive=   14 NUniq=   14 SFac= 1.00D+00 NAtFMM=   60 NAOKFM=F Big=F
 One-electron integrals computed using PRISM.
 NBasis=   106 RedAO= T  NBF=   106
 NBsUse=   106 1.00D-06 NBFU=   106
 Harris functional with IExCor=  402 diagonalized for initial guess.
 ExpMin= 1.61D-01 ExpMax= 3.05D+03 ExpMxC= 4.57D+02 IAcc=1 IRadAn=         1 AccDes= 0.00D+00
 HarFok:  IExCor=  402 AccDes= 0.00D+00 IRadAn=         1 IDoV= 1
 ScaDFX=  1.000000  1.000000  1.000000  1.000000
 FoFCou: FMM=F IPFlag=           0 FMFlag=      100000 FMFlg1=           0
         NFxFlg=           0 DoJE=T BraDBF=F KetDBF=T FulRan=T
         Omega=  0.000000  0.000000  1.000000  0.000000  0.000000 ICntrl=     500 IOpCl=  0
         NMat0=    1 NMatS0=    1 NMatT0=    0 NMatD0=    1 NMtDS0=    0 NMtDT0=    0
         I1Cent=           4 NGrid=           0.
 Petite list used in FoFCou.
 Initial guess orbital symmetries:
       Occupied  (A) (A) (A) (A) (A) (A) (A) (A) (A) (A) (A) (A)
                 (A) (A) (A) (A) (A) (A) (A) (A) (A) (A)
       Virtual   (A) (A) (A) (A) (A) (A) (A) (A) (A) (A) (A) (A)
                 (A) (A) (A) (A) (A) (A) (A) (A) (A) (A) (A) (A)
                 (A) (A) (A) (A) (A) (A) (A) (A) (A) (A) (A) (A)
                 (A) (A) (A) (A) (A) (A) (A) (A) (A) (A) (A) (A)
                 (A) (A) (A) (A) (A) (A) (A) (A) (A) (A) (A) (A)
                 (A) (A) (A) (A) (A) (A) (A) (A) (A) (A) (A) (A)
                 (A) (A) (A) (A) (A) (A) (A) (A) (A) (A) (A) (A)
 The electronic state of the initial guess is 1-A.
 Requested convergence on RMS density matrix=1.00D-08 within 128 cycles.
 Requested convergence on MAX density matrix=1.00D-06.
 Requested convergence on             energy=1.00D-06.
 No special actions if energy rises.
 Keep R1 ints in memory in canonical form, NReq=17179717.
 Integral accuracy reduced to 1.0D-05 until final iterations.
 Initial convergence to 1.0D-05 achieved.  Increase integral accuracy.
 SCF Done:  E(RB3LYP) =  -233.376955860     A.U. after   14 cycles
             Convg  =    0.2162D-08             -V/T =  2.0107

 **********************************************************************

            Population analysis using the SCF density.

 **********************************************************************

 Orbital symmetries:
       Occupied  (A) (A) (A) (A) (A) (A) (A) (A) (A) (A) (A) (A)
                 (A) (A) (A) (A) (A) (A) (A) (A) (A) (A)
       Virtual   (A) (A) (A) (A) (A) (A) (A) (A) (A) (A) (A) (A)
                 (A) (A) (A) (A) (A) (A) (A) (A) (A) (A) (A) (A)
                 (A) (A) (A) (A) (A) (A) (A) (A) (A) (A) (A) (A)
                 (A) (A) (A) (A) (A) (A) (A) (A) (A) (A) (A) (A)
                 (A) (A) (A) (A) (A) (A) (A) (A) (A) (A) (A) (A)
                 (A) (A) (A) (A) (A) (A) (A) (A) (A) (A) (A) (A)
                 (A) (A) (A) (A) (A) (A) (A) (A) (A) (A) (A) (A)
 The electronic state is 1-A.
 Alpha  occ. eigenvalues --  -10.19766 -10.19674 -10.19462 -10.19386 -10.17981
 Alpha  occ. eigenvalues --  -10.17923  -0.80597  -0.76501  -0.71023  -0.61524
 Alpha  occ. eigenvalues --   -0.56918  -0.53748  -0.48393  -0.45657  -0.42866
 Alpha  occ. eigenvalues --   -0.40454  -0.37955  -0.36390  -0.33948  -0.32515
 Alpha  occ. eigenvalues --   -0.27651  -0.20936
 Alpha virt. eigenvalues --   -0.04048   0.03505   0.09465   0.10483   0.12189
 Alpha virt. eigenvalues --    0.12890   0.15027   0.17439   0.18539   0.20467
 Alpha virt. eigenvalues --    0.22548   0.29579   0.30280   0.33791   0.36986
 Alpha virt. eigenvalues --    0.43346   0.48209   0.51027   0.52743   0.55840
 Alpha virt. eigenvalues --    0.57004   0.59958   0.60171   0.60835   0.64318
 Alpha virt. eigenvalues --    0.64841   0.66668   0.67397   0.68155   0.70965
 Alpha virt. eigenvalues --    0.83440   0.85827   0.86830   0.88622   0.89671
 Alpha virt. eigenvalues --    0.91686   0.93118   0.95474   0.96762   1.01914
 Alpha virt. eigenvalues --    1.04903   1.07134   1.10691   1.13503   1.22076
 Alpha virt. eigenvalues --    1.29961   1.33409   1.35465   1.37078   1.46513
 Alpha virt. eigenvalues --    1.48188   1.50400   1.57247   1.68488   1.72916
 Alpha virt. eigenvalues --    1.75250   1.75912   1.92458   1.95710   2.00466
 Alpha virt. eigenvalues --    2.02410   2.02930   2.13435   2.18256   2.18769
 Alpha virt. eigenvalues --    2.21403   2.28277   2.31951   2.34683   2.40213
 Alpha virt. eigenvalues --    2.47105   2.51364   2.57752   2.70855   2.75079
 Alpha virt. eigenvalues --    2.79922   2.95260   3.02357   4.05424   4.08302
 Alpha virt. eigenvalues --    4.15970   4.19291   4.35545   4.49180
          Condensed to atoms (all electrons):
              1          2          3          4          5          6
     1  C    5.061715   0.372319   0.365014   0.627760  -0.052074  -0.026802
     2  H    0.372319   0.561555  -0.040506  -0.035724   0.005739  -0.011756
     3  H    0.365014  -0.040506   0.559564  -0.024030  -0.006500   0.003906
     4  C    0.627760  -0.035724  -0.024030   4.788676   0.368931   0.417060
     5  H   -0.052074   0.005739  -0.006500   0.368931   0.591482  -0.044586
     6  C   -0.026802  -0.011756   0.003906   0.417060  -0.044586   4.884542
     7  H   -0.003867   0.004706  -0.000001  -0.041723   0.003739   0.356318
     8  C    0.002391   0.000434  -0.000177  -0.020812  -0.004021   0.620410
     9  H    0.000405   0.000013  -0.000007  -0.008295   0.003880  -0.055773
    10  C   -0.000200  -0.000001   0.000002   0.003640   0.000072  -0.023274
    11  H    0.000001   0.000000   0.000000  -0.000092   0.000000   0.004197
    12  C    0.000017  -0.000005   0.000000   0.000471  -0.000003  -0.021688
    13  H   -0.000006   0.000004   0.000000   0.000141   0.000003   0.005177
    14  H    0.000000   0.000000   0.000000  -0.000008   0.000000   0.000279
              7          8          9         10         11         12
     1  C   -0.003867   0.002391   0.000405  -0.000200   0.000001   0.000017
     2  H    0.004706   0.000434   0.000013  -0.000001   0.000000  -0.000005
     3  H   -0.000001  -0.000177  -0.000007   0.000002   0.000000   0.000000
     4  C   -0.041723  -0.020812  -0.008295   0.003640  -0.000092   0.000471
     5  H    0.003739  -0.004021   0.003880   0.000072   0.000000  -0.000003
     6  C    0.356318   0.620410  -0.055773  -0.023274   0.004197  -0.021688
     7  H    0.597012  -0.048948   0.006273  -0.013466   0.000018   0.004126
     8  C   -0.048948   4.927089   0.364736   0.398801  -0.039503  -0.038371
     9  H    0.006273   0.364736   0.597883  -0.042385  -0.003236   0.004833
    10  C   -0.013466   0.398801  -0.042385   4.807394   0.365620   0.654776
    11  H    0.000018  -0.039503  -0.003236   0.365620   0.593430  -0.053789
    12  C    0.004126  -0.038371   0.004833   0.654776  -0.053789   5.047959
    13  H    0.005164  -0.017843  -0.000012  -0.031442   0.006163   0.364127
    14  H   -0.000033   0.004473  -0.000124  -0.025703  -0.006652   0.367599
             13         14
     1  C   -0.000006   0.000000
     2  H    0.000004   0.000000
     3  H    0.000000   0.000000
     4  C    0.000141  -0.000008
     5  H    0.000003   0.000000
     6  C    0.005177   0.000279
     7  H    0.005164  -0.000033
     8  C   -0.017843   0.004473
     9  H   -0.000012  -0.000124
    10  C   -0.031442  -0.025703
    11  H    0.006163  -0.006652
    12  C    0.364127   0.367599
    13  H    0.564769  -0.039944
    14  H   -0.039944   0.556219
 Mulliken atomic charges:
              1
     1  C   -0.346673
     2  H    0.143223
     3  H    0.142735
     4  C   -0.075997
     5  H    0.133338
     6  C   -0.108010
     7  H    0.130683
     8  C   -0.148659
     9  H    0.131808
    10  C   -0.093835
    11  H    0.133844
    12  C   -0.330052
    13  H    0.143701
    14  H    0.143895
 Sum of Mulliken atomic charges =   0.00000
 Mulliken charges with hydrogens summed into heavy atoms:
              1
     1  C   -0.060715
     4  C    0.057341
     6  C    0.022672
     8  C   -0.016851
    10  C    0.040009
    12  C   -0.042456
 Sum of Mulliken charges with hydrogens summed into heavy atoms =   0.00000
 Electronic spatial extent (au):  <R**2>=            827.5241
 Charge=              0.0000 electrons
 Dipole moment (field-independent basis, Debye):
    X=             -0.0612    Y=             -0.1698    Z=              0.0030  Tot=              0.1806
 Quadrupole moment (field-independent basis, Debye-Ang):
   XX=            -33.6506   YY=            -32.7663   ZZ=            -40.9153
   XY=             -0.0082   XZ=             -0.2740   YZ=              0.1302
 Traceless Quadrupole moment (field-independent basis, Debye-Ang):
   XX=              2.1268   YY=              3.0111   ZZ=             -5.1378
   XY=             -0.0082   XZ=             -0.2740   YZ=              0.1302
 Octapole moment (field-independent basis, Debye-Ang**2):
  XXX=             -1.7288  YYY=             -1.2560  ZZZ=              0.0122  XYY=              0.1129
  XXY=             -2.1788  XXZ=              0.5112  XZZ=             -0.1703  YZZ=             -0.2286
  YYZ=             -0.1800  XYZ=              0.7561
 Hexadecapole moment (field-independent basis, Debye-Ang**3):
 XXXX=           -852.1938 YYYY=           -157.0125 ZZZZ=            -43.0818 XXXY=             -5.1145
 XXXZ=             -3.9976 YYYX=              1.2555 YYYZ=              0.5065 ZZZX=             -0.2556
 ZZZY=              0.1015 XXYY=           -170.8528 XXZZ=           -181.3795 YYZZ=            -37.0736
 XXYZ=              0.0867 YYXZ=              0.0103 ZZXY=              0.2872
 N-N= 1.948986625385D+02 E-N=-9.292086862177D+02  KE= 2.309064538640D+02
 Calling FoFJK, ICntrl=      2127 FMM=F ISym2X=0 I1Cent= 0 IOpClX= 0 NMat=1 NMatS=1 NMatT=0.
 ***** Axes restored to original set *****
 -------------------------------------------------------------------
 Center     Atomic                   Forces (Hartrees/Bohr)
 Number     Number              X              Y              Z
 -------------------------------------------------------------------
      1        6           0.010696580    0.001920959    0.030777676
      2        1           0.002488349   -0.000789041   -0.011851067
      3        1          -0.011511611   -0.000273200   -0.004717162
      4        6           0.045013448   -0.002544698   -0.041968828
      5        1          -0.001506954    0.000867315    0.012980801
      6        6          -0.054661694    0.002688069    0.041032680
      7        1          -0.003334557   -0.002018158   -0.012012191
      8        6           0.042559811   -0.002771539   -0.025460105
      9        1          -0.003505844    0.000261137    0.011558902
     10        6          -0.034731209    0.003018423   -0.030643258
     11        1           0.002865257   -0.000278342    0.012128859
     12        6          -0.007996097   -0.001740982    0.033304727
     13        1           0.002495811    0.002034983   -0.011090121
     14        1           0.011128708   -0.000374926   -0.004040914
 -------------------------------------------------------------------
 Cartesian Forces:  Max     0.054661694 RMS     0.019847149

 GradGradGradGradGradGradGradGradGradGradGradGradGradGradGradGradGradGrad
 Berny optimization.
 Internal  Forces:  Max     0.045101466 RMS     0.012301786
 Search for a local minimum.
 Step number   1 out of a maximum of   61
 All quantities printed in internal units (Hartrees-Bohrs-Radians)
 Mixed Optimization -- RFO/linear search
 Second derivative matrix not updated -- first step.
 ITU=  0
     Eigenvalues ---    0.00237   0.00237   0.01459   0.01459   0.01463
     Eigenvalues ---    0.01463   0.02681   0.02681   0.02681   0.02681
     Eigenvalues ---    0.02681   0.16000   0.16000   0.16000   0.16000
     Eigenvalues ---    0.16000   0.16000   0.16000   0.16000   0.22000
     Eigenvalues ---    0.22000   0.22000   0.22000   0.28519   0.28519
     Eigenvalues ---    0.37230   0.37230   0.37230   0.37230   0.37230
     Eigenvalues ---    0.37230   0.37230   0.37230   0.53930   0.53930
     Eigenvalues ---    0.53930
 RFO step:  Lambda=-2.73623190D-02 EMin= 2.36824086D-03
 Linear search not attempted -- first point.
 Maximum step size (   0.300) exceeded in Quadratic search.
    -- Step size scaled by   0.949
 Iteration  1 RMS(Cart)=  0.16725543 RMS(Int)=  0.00915588
 Iteration  2 RMS(Cart)=  0.01441724 RMS(Int)=  0.00007493
 Iteration  3 RMS(Cart)=  0.00012935 RMS(Int)=  0.00005095
 Iteration  4 RMS(Cart)=  0.00000001 RMS(Int)=  0.00005095
 Variable       Old X    -DE/DX   Delta X   Delta X   Delta X     New X
                                 (Linear)    (Quad)   (Total)
    R1        2.02201   0.01152   0.00000   0.02735   0.02735   2.04936
    R2        2.02201   0.01154   0.00000   0.02739   0.02739   2.04939
    R3        2.56096  -0.01320   0.00000  -0.02210  -0.02210   2.53886
    R4        2.02201   0.01200   0.00000   0.02848   0.02848   2.05049
    R5        2.91018  -0.04510   0.00000  -0.13691  -0.13691   2.77327
    R6        2.02201   0.00880   0.00000   0.02089   0.02089   2.04290
    R7        2.56096  -0.00591   0.00000  -0.00989  -0.00989   2.55106
    R8        2.02201   0.01176   0.00000   0.02792   0.02792   2.04993
    R9        2.91018  -0.02626   0.00000  -0.07970  -0.07970   2.83048
   R10        2.02201   0.01194   0.00000   0.02834   0.02834   2.05035
   R11        2.56096  -0.01285   0.00000  -0.02151  -0.02151   2.53945
   R12        2.02201   0.00852   0.00000   0.02022   0.02022   2.04222
   R13        2.02201   0.01111   0.00000   0.02637   0.02637   2.04837
    A1        2.09241  -0.00572   0.00000  -0.02898  -0.02898   2.06344
    A2        2.09836   0.00201   0.00000   0.01017   0.01017   2.10853
    A3        2.09241   0.00371   0.00000   0.01881   0.01881   2.11122
    A4        2.09836  -0.00064   0.00000   0.00404   0.00404   2.10240
    A5        2.09241   0.01188   0.00000   0.04557   0.04557   2.13798
    A6        2.09241  -0.01124   0.00000  -0.04961  -0.04961   2.04280
    A7        2.09241  -0.01296   0.00000  -0.06085  -0.06086   2.03156
    A8        2.09836   0.00778   0.00000   0.02984   0.02983   2.12819
    A9        2.09241   0.00518   0.00000   0.03101   0.03100   2.12341
   A10        2.09836  -0.01281   0.00000  -0.04579  -0.04582   2.05254
   A11        2.09241   0.03111   0.00000   0.11933   0.11930   2.21172
   A12        2.09241  -0.01830   0.00000  -0.07355  -0.07357   2.01884
   A13        2.09241  -0.01918   0.00000  -0.07799  -0.07802   2.01439
   A14        2.09836   0.03117   0.00000   0.11956   0.11953   2.21789
   A15        2.09241  -0.01199   0.00000  -0.04156  -0.04159   2.05082
   A16        2.09836   0.00761   0.00000   0.03855   0.03853   2.13689
   A17        2.09241   0.00031   0.00000   0.00158   0.00156   2.09397
   A18        2.09241  -0.00792   0.00000  -0.04013  -0.04014   2.05227
    D1       -3.14159   0.00002   0.00000   0.00044   0.00044  -3.14115
    D2        0.00000  -0.00003   0.00000  -0.00068  -0.00069  -0.00069
    D3        0.00000   0.00000   0.00000   0.00007   0.00008   0.00008
    D4        3.14159  -0.00005   0.00000  -0.00105  -0.00105   3.14054
    D5        0.00000  -0.00011   0.00000  -0.00215  -0.00206  -0.00206
    D6        3.14159   0.00022   0.00000   0.00533   0.00522  -3.13637
    D7        3.14159  -0.00016   0.00000  -0.00327  -0.00316   3.13843
    D8        0.00000   0.00017   0.00000   0.00422   0.00413   0.00413
    D9        0.00000   0.00095   0.00000   0.01749   0.01745   0.01745
   D10        3.14159   0.00030   0.00000   0.00272   0.00258  -3.13902
   D11        3.14159   0.00128   0.00000   0.02497   0.02512  -3.11648
   D12        0.00000   0.00063   0.00000   0.01020   0.01025   0.01025
   D13       -3.01017   0.00100   0.00000   0.03178   0.03179  -2.97837
   D14        0.13142   0.00163   0.00000   0.04603   0.04592   0.17734
   D15        0.13142   0.00035   0.00000   0.01706   0.01717   0.14860
   D16       -3.01017   0.00098   0.00000   0.03131   0.03130  -2.97887
   D17        0.00000   0.00084   0.00000   0.01309   0.01302   0.01302
   D18        3.14159   0.00018   0.00000   0.00162   0.00155  -3.14004
   D19       -3.14159   0.00147   0.00000   0.02734   0.02740  -3.11419
   D20        0.00000   0.00081   0.00000   0.01587   0.01593   0.01593
         Item               Value     Threshold  Converged?
 Maximum Force            0.045101     0.000450     NO 
 RMS     Force            0.012302     0.000300     NO 
 Maximum Displacement     0.649468     0.001800     NO 
 RMS     Displacement     0.174217     0.001200     NO 
 Predicted change in Energy=-1.496751D-02
 GradGradGradGradGradGradGradGradGradGradGradGradGradGradGradGradGradGrad

                          Input orientation:                          
 ---------------------------------------------------------------------
 Center     Atomic      Atomic             Coordinates (Angstroms)
 Number     Number       Type             X           Y           Z
 ---------------------------------------------------------------------
      1          6           0       -4.578843    1.993538   -2.299948
      2          1           0       -4.128341    1.904020   -3.282351
      3          1           0       -5.661030    2.011720   -2.231658
      4          6           0       -3.815159    2.079103   -1.197918
      5          1           0       -4.271959    2.168090   -0.217713
      6          6           0       -2.348748    2.056519   -1.251132
      7          1           0       -1.904732    1.964519   -2.232491
      8          6           0       -1.592379    2.137304   -0.135882
      9          1           0       -2.107029    2.203950    0.816712
     10          6           0       -0.096231    2.127427   -0.065776
     11          1           0        0.322673    2.042572    0.931489
     12          6           0        0.763642    2.226640   -1.093696
     13          1           0        0.433668    2.339671   -2.116560
     14          1           0        1.831750    2.205031   -0.910307
 ---------------------------------------------------------------------
                    Distance matrix (angstroms):
                    1          2          3          4          5
     1  C    0.000000
     2  H    1.084473   0.000000
     3  H    1.084492   1.861368   0.000000
     4  C    1.343505   2.115089   2.116695   0.000000
     5  H    2.111953   3.079345   2.451519   1.085074   0.000000
     6  C    2.465220   2.704822   3.454656   1.467550   2.186125
     7  H    2.675119   2.459737   3.756594   2.175593   3.115210
     8  C    3.690910   4.047938   4.578424   2.464155   2.681006
     9  H    3.983429   4.580173   4.686196   2.644244   2.399634
    10  C    5.010316   5.162769   5.972556   3.887739   4.178689
    11  H    5.871069   6.130838   6.768394   4.653747   4.737833
    12  C    5.481927   5.368966   6.528212   4.582363   5.111560
    13  H    5.027794   4.728720   6.104600   4.354806   5.077202
    14  H    6.562891   6.421829   7.610853   5.655631   6.142989
                    6          7          8          9         10
     6  C    0.000000
     7  H    1.081055   0.000000
     8  C    1.349964   2.126780   0.000000
     9  H    2.087137   3.065272   1.084777   0.000000
    10  C    2.546356   2.826990   1.497823   2.197260   0.000000
    11  H    3.449713   3.870168   2.194466   2.437759   1.084997
    12  C    3.121009   2.913036   2.544843   3.448322   1.343817
    13  H    2.927624   2.371138   2.840582   3.882995   2.128745
    14  H    4.196996   3.970808   3.511265   4.300764   2.106267
                   11         12         13         14
    11  H    0.000000
    12  C    2.080796   0.000000
    13  H    3.064505   1.080698   0.000000
    14  H    2.386612   1.083953   1.851434   0.000000
 Stoichiometry    C6H8
 Framework group  C1[X(C6H8)]
 Deg. of freedom    36
 Full point group                 C1      NOp   1
 Largest Abelian subgroup         C1      NOp   1
 Largest concise Abelian subgroup C1      NOp   1
                         Standard orientation:                         
 ---------------------------------------------------------------------
 Center     Atomic      Atomic             Coordinates (Angstroms)
 Number     Number       Type             X           Y           Z
 ---------------------------------------------------------------------
      1          6           0        2.883814    0.495144    0.014709
      2          1           0        2.722678    1.563824    0.104368
      3          1           0        3.904763    0.132735   -0.034726
      4          6           0        1.845201   -0.355729   -0.033287
      5          1           0        2.013009   -1.424019   -0.122633
      6          6           0        0.450934    0.097526    0.032174
      7          1           0        0.295827    1.163436    0.124136
      8          6           0       -0.584113   -0.768043   -0.011084
      9          1           0       -0.352414   -1.825530   -0.080193
     10          6           0       -2.041143   -0.425291    0.044219
     11          1           0       -2.714151   -1.269110    0.154892
     12          6           0       -2.589409    0.798477   -0.043190
     13          1           0       -1.995783    1.691156   -0.179723
     14          1           0       -3.665633    0.915006    0.012634
 ---------------------------------------------------------------------
 Rotational constants (GHZ):     13.9440870      1.5317282      1.3814926
 Standard basis: 6-31G(d) (6D, 7F)
 There are   106 symmetry adapted basis functions of A   symmetry.
 Integral buffers will be    131072 words long.
 Raffenetti 2 integral format.
 Two-electron integral symmetry is turned on.
   106 basis functions,   200 primitive gaussians,   106 cartesian basis functions
    22 alpha electrons       22 beta electrons
       nuclear repulsion energy       194.8572519627 Hartrees.
 NAtoms=   14 NActive=   14 NUniq=   14 SFac= 1.00D+00 NAtFMM=   60 NAOKFM=F Big=F
 One-electron integrals computed using PRISM.
 NBasis=   106 RedAO= T  NBF=   106
 NBsUse=   106 1.00D-06 NBFU=   106
 Initial guess read from the read-write file.
 B after Tr=     0.000000    0.000000    0.000000
         Rot=    1.000000    0.000000    0.000000    0.000000 Ang=   0.00 deg.
 Initial guess orbital symmetries:
       Occupied  (A) (A) (A) (A) (A) (A) (A) (A) (A) (A) (A) (A)
                 (A) (A) (A) (A) (A) (A) (A) (A) (A) (A)
       Virtual   (A) (A) (A) (A) (A) (A) (A) (A) (A) (A) (A) (A)
                 (A) (A) (A) (A) (A) (A) (A) (A) (A) (A) (A) (A)
                 (A) (A) (A) (A) (A) (A) (A) (A) (A) (A) (A) (A)
                 (A) (A) (A) (A) (A) (A) (A) (A) (A) (A) (A) (A)
                 (A) (A) (A) (A) (A) (A) (A) (A) (A) (A) (A) (A)
                 (A) (A) (A) (A) (A) (A) (A) (A) (A) (A) (A) (A)
                 (A) (A) (A) (A) (A) (A) (A) (A) (A) (A) (A) (A)
 Harris functional with IExCor=  402 diagonalized for initial guess.
 ExpMin= 1.61D-01 ExpMax= 3.05D+03 ExpMxC= 4.57D+02 IAcc=1 IRadAn=         1 AccDes= 0.00D+00
 HarFok:  IExCor=  402 AccDes= 0.00D+00 IRadAn=         1 IDoV= 1
 ScaDFX=  1.000000  1.000000  1.000000  1.000000
 FoFCou: FMM=F IPFlag=           0 FMFlag=      100000 FMFlg1=           0
         NFxFlg=           0 DoJE=T BraDBF=F KetDBF=T FulRan=T
         Omega=  0.000000  0.000000  1.000000  0.000000  0.000000 ICntrl=     500 IOpCl=  0
         NMat0=    1 NMatS0=    1 NMatT0=    0 NMatD0=    1 NMtDS0=    0 NMtDT0=    0
         I1Cent=           4 NGrid=           0.
 Petite list used in FoFCou.
 Requested convergence on RMS density matrix=1.00D-08 within 128 cycles.
 Requested convergence on MAX density matrix=1.00D-06.
 Requested convergence on             energy=1.00D-06.
 No special actions if energy rises.
 Keep R1 ints in memory in canonical form, NReq=17179717.
 Integral accuracy reduced to 1.0D-05 until final iterations.
 Initial convergence to 1.0D-05 achieved.  Increase integral accuracy.
 SCF Done:  E(RB3LYP) =  -233.391395231     A.U. after   13 cycles
             Convg  =    0.8751D-08             -V/T =  2.0104
 Calling FoFJK, ICntrl=      2127 FMM=F ISym2X=0 I1Cent= 0 IOpClX= 0 NMat=1 NMatS=1 NMatT=0.
 ***** Axes restored to original set *****
 -------------------------------------------------------------------
 Center     Atomic                   Forces (Hartrees/Bohr)
 Number     Number              X              Y              Z
 -------------------------------------------------------------------
      1        6          -0.001010394    0.000562064    0.006784644
      2        1          -0.001139408   -0.000169143   -0.002420421
      3        1          -0.001001365   -0.000162503   -0.002397421
      4        6           0.012432990   -0.001036000   -0.010441568
      5        1          -0.001139441    0.000256229    0.002556275
      6        6          -0.013891676    0.001210437    0.012058653
      7        1           0.003340992   -0.000496121   -0.004386968
      8        6           0.023357494   -0.000954600   -0.004005780
      9        1          -0.000438322    0.000342940    0.003222371
     10        6          -0.017789304    0.000982550   -0.005998199
     11        1          -0.000654907   -0.000430423    0.003328168
     12        6          -0.003385399   -0.000484825    0.007785146
     13        1          -0.000217007    0.000436448   -0.004277726
     14        1           0.001535747   -0.000057053   -0.001807175
 -------------------------------------------------------------------
 Cartesian Forces:  Max     0.023357494 RMS     0.006435028

 GradGradGradGradGradGradGradGradGradGradGradGradGradGradGradGradGradGrad
 Berny optimization.
 Using GEDIIS/GDIIS optimizer.
 Internal  Forces:  Max     0.020534530 RMS     0.003725102
 Search for a local minimum.
 Step number   2 out of a maximum of   61
 All quantities printed in internal units (Hartrees-Bohrs-Radians)
 Mixed Optimization -- RFO/linear search
 Update second derivatives using D2CorX and points    1    2
 DE= -1.44D-02 DEPred=-1.50D-02 R= 9.65D-01
 SS=  1.41D+00  RLast= 3.11D-01 DXNew= 5.0454D-01 9.3247D-01
 Trust test= 9.65D-01 RLast= 3.11D-01 DXMaxT set to 5.05D-01
 ITU=  1  0
 Use linear search instead of GDIIS.
     Eigenvalues ---    0.00237   0.00239   0.01481   0.01485   0.01499
     Eigenvalues ---    0.01522   0.02681   0.02681   0.02681   0.02681
     Eigenvalues ---    0.02692   0.15362   0.15999   0.15999   0.16000
     Eigenvalues ---    0.16000   0.16000   0.16000   0.16352   0.19776
     Eigenvalues ---    0.22000   0.22000   0.24056   0.25959   0.31721
     Eigenvalues ---    0.36619   0.37230   0.37230   0.37230   0.37230
     Eigenvalues ---    0.37230   0.37230   0.37914   0.53838   0.53930
     Eigenvalues ---    0.54226
 RFO step:  Lambda=-2.78917658D-03 EMin= 2.36823966D-03
 Quartic linear search produced a step of  0.22433.
 Iteration  1 RMS(Cart)=  0.03518040 RMS(Int)=  0.00056303
 Iteration  2 RMS(Cart)=  0.00055834 RMS(Int)=  0.00000984
 Iteration  3 RMS(Cart)=  0.00000021 RMS(Int)=  0.00000984
 Variable       Old X    -DE/DX   Delta X   Delta X   Delta X     New X
                                 (Linear)    (Quad)   (Total)
    R1        2.04936   0.00173   0.00614   0.00218   0.00832   2.05768
    R2        2.04939   0.00085   0.00614  -0.00070   0.00544   2.05484
    R3        2.53886   0.00016  -0.00496   0.00321  -0.00175   2.53711
    R4        2.05049   0.00281   0.00639   0.00557   0.01196   2.06245
    R5        2.77327  -0.00835  -0.03071  -0.01852  -0.04923   2.72404
    R6        2.04290   0.00540   0.00469   0.01495   0.01964   2.06254
    R7        2.55106  -0.00012  -0.00222   0.00101  -0.00121   2.54985
    R8        2.04993   0.00306   0.00626   0.00644   0.01270   2.06264
    R9        2.83048  -0.02053  -0.01788  -0.07733  -0.09521   2.73527
   R10        2.05035   0.00284   0.00636   0.00567   0.01203   2.06238
   R11        2.53945  -0.00262  -0.00483  -0.00314  -0.00797   2.53147
   R12        2.04222   0.00416   0.00454   0.01102   0.01555   2.05778
   R13        2.04837   0.00121   0.00591   0.00061   0.00652   2.05490
    A1        2.06344  -0.00308  -0.00650  -0.01976  -0.02626   2.03717
    A2        2.10853   0.00112   0.00228   0.00721   0.00949   2.11802
    A3        2.11122   0.00196   0.00422   0.01256   0.01677   2.12799
    A4        2.10240  -0.00284   0.00091  -0.01583  -0.01492   2.08747
    A5        2.13798   0.00578   0.01022   0.02622   0.03645   2.17443
    A6        2.04280  -0.00294  -0.01113  -0.01039  -0.02152   2.02128
    A7        2.03156  -0.00145  -0.01365   0.00170  -0.01195   2.01961
    A8        2.12819   0.00542   0.00669   0.02615   0.03284   2.16103
    A9        2.12341  -0.00397   0.00695  -0.02784  -0.02089   2.10252
   A10        2.05254   0.00137  -0.01028   0.01553   0.00525   2.05779
   A11        2.21172  -0.00038   0.02676  -0.01648   0.01028   2.22199
   A12        2.01884  -0.00099  -0.01651   0.00101  -0.01550   2.00334
   A13        2.01439  -0.00153  -0.01750  -0.00296  -0.02047   1.99392
   A14        2.21789  -0.00083   0.02682  -0.01897   0.00783   2.22572
   A15        2.05082   0.00236  -0.00933   0.02202   0.01269   2.06351
   A16        2.13689   0.00012   0.00864  -0.00353   0.00510   2.14199
   A17        2.09397   0.00202   0.00035   0.01504   0.01538   2.10935
   A18        2.05227  -0.00214  -0.00901  -0.01141  -0.02043   2.03184
    D1       -3.14115  -0.00004   0.00010  -0.00206  -0.00196   3.14007
    D2       -0.00069   0.00000  -0.00015   0.00037   0.00021  -0.00048
    D3        0.00008   0.00001   0.00002  -0.00009  -0.00008   0.00000
    D4        3.14054   0.00005  -0.00024   0.00234   0.00210  -3.14054
    D5       -0.00206  -0.00002  -0.00046  -0.00208  -0.00252  -0.00459
    D6       -3.13637  -0.00004   0.00117  -0.00332  -0.00217  -3.13854
    D7        3.13843   0.00002  -0.00071   0.00027  -0.00042   3.13802
    D8        0.00413   0.00000   0.00093  -0.00097  -0.00006   0.00407
    D9        0.01745   0.00005   0.00391   0.00030   0.00420   0.02164
   D10       -3.13902   0.00012   0.00058   0.00582   0.00637  -3.13264
   D11       -3.11648   0.00001   0.00563  -0.00115   0.00451  -3.11196
   D12        0.01025   0.00009   0.00230   0.00438   0.00669   0.01694
   D13       -2.97837   0.00012   0.00713   0.03892   0.04604  -2.93233
   D14        0.17734  -0.00002   0.01030   0.03065   0.04096   0.21830
   D15        0.14860   0.00021   0.00385   0.04446   0.04831   0.19690
   D16       -2.97887   0.00007   0.00702   0.03619   0.04323  -2.93564
   D17        0.01302   0.00002   0.00292   0.00226   0.00519   0.01821
   D18       -3.14004   0.00027   0.00035   0.01274   0.01309  -3.12695
   D19       -3.11419  -0.00009   0.00615  -0.00597   0.00017  -3.11402
   D20        0.01593   0.00016   0.00357   0.00451   0.00807   0.02400
         Item               Value     Threshold  Converged?
 Maximum Force            0.020535     0.000450     NO 
 RMS     Force            0.003725     0.000300     NO 
 Maximum Displacement     0.096497     0.001800     NO 
 RMS     Displacement     0.035264     0.001200     NO 
 Predicted change in Energy=-1.669060D-03
 GradGradGradGradGradGradGradGradGradGradGradGradGradGradGradGradGradGrad

                          Input orientation:                          
 ---------------------------------------------------------------------
 Center     Atomic      Atomic             Coordinates (Angstroms)
 Number     Number       Type             X           Y           Z
 ---------------------------------------------------------------------
      1          6           0       -4.568298    1.989739   -2.297969
      2          1           0       -4.144078    1.878984   -3.294674
      3          1           0       -5.652988    2.022761   -2.229151
      4          6           0       -3.784836    2.082171   -1.211617
      5          1           0       -4.240497    2.193946   -0.226205
      6          6           0       -2.343996    2.046372   -1.236443
      7          1           0       -1.890055    1.931056   -2.222292
      8          6           0       -1.571426    2.137256   -0.133922
      9          1           0       -2.069797    2.223235    0.833345
     10          6           0       -0.125408    2.120247   -0.072038
     11          1           0        0.278668    2.000334    0.934648
     12          6           0        0.736363    2.242597   -1.090323
     13          1           0        0.413980    2.390735   -2.119834
     14          1           0        1.809646    2.200670   -0.920757
 ---------------------------------------------------------------------
                    Distance matrix (angstroms):
                    1          2          3          4          5
     1  C    0.000000
     2  H    1.088876   0.000000
     3  H    1.087372   1.852787   0.000000
     4  C    1.342578   2.123551   2.128120   0.000000
     5  H    2.107453   3.086098   2.456873   1.091401   0.000000
     6  C    2.465272   2.739458   3.454773   1.441499   2.153851
     7  H    2.679954   2.496665   3.764056   2.152788   3.094843
     8  C    3.699473   4.083576   4.589361   2.462447   2.671267
     9  H    4.012749   4.632677   4.717873   2.672663   2.415667
    10  C    4.971023   5.156869   5.934373   3.832950   4.118636
    11  H    5.826063   6.120668   6.722698   4.596218   4.669896
    12  C    5.446262   5.367502   6.493771   4.525671   5.051555
    13  H    5.001562   4.734768   6.079099   4.306986   5.028788
    14  H    6.528351   6.417616   7.578552   5.603291   6.089883
                    6          7          8          9         10
     6  C    0.000000
     7  H    1.091448   0.000000
     8  C    1.349324   2.122577   0.000000
     9  H    2.095349   3.074833   1.091500   0.000000
    10  C    2.506677   2.788076   1.447442   2.147318   0.000000
    11  H    3.405014   3.830722   2.140897   2.361194   1.091363
    12  C    3.090059   2.876888   2.500339   3.402266   1.339599
    13  H    2.916401   2.351676   2.819563   3.862444   2.134847
    14  H    4.168477   3.931217   3.472000   4.257636   2.114527
                   11         12         13         14
    11  H    0.000000
    12  C    2.090140   0.000000
    13  H    3.082301   1.088929   0.000000
    14  H    2.413826   1.087404   1.849809   0.000000
 Stoichiometry    C6H8
 Framework group  C1[X(C6H8)]
 Deg. of freedom    36
 Full point group                 C1      NOp   1
 Largest Abelian subgroup         C1      NOp   1
 Largest concise Abelian subgroup C1      NOp   1
                         Standard orientation:                         
 ---------------------------------------------------------------------
 Center     Atomic      Atomic             Coordinates (Angstroms)
 Number     Number       Type             X           Y           Z
 ---------------------------------------------------------------------
      1          6           0        2.876720    0.482610    0.016369
      2          1           0        2.750602    1.558194    0.129786
      3          1           0        3.897663    0.114380   -0.050420
      4          6           0        1.819241   -0.342711   -0.039319
      5          1           0        1.978648   -1.416206   -0.154877
      6          6           0        0.444276    0.082458    0.042059
      7          1           0        0.286761    1.155900    0.161098
      8          6           0       -0.607195   -0.761422   -0.012254
      9          1           0       -0.400875   -1.829346   -0.103586
     10          6           0       -2.011893   -0.418119    0.051448
     11          1           0       -2.675894   -1.272259    0.195045
     12          6           0       -2.559843    0.799694   -0.054414
     13          1           0       -1.968856    1.698464   -0.223867
     14          1           0       -3.635878    0.935807    0.023490
 ---------------------------------------------------------------------
 Rotational constants (GHZ):     14.0743815      1.5556148      1.4029742
 Standard basis: 6-31G(d) (6D, 7F)
 There are   106 symmetry adapted basis functions of A   symmetry.
 Integral buffers will be    131072 words long.
 Raffenetti 2 integral format.
 Two-electron integral symmetry is turned on.
   106 basis functions,   200 primitive gaussians,   106 cartesian basis functions
    22 alpha electrons       22 beta electrons
       nuclear repulsion energy       196.1300908308 Hartrees.
 NAtoms=   14 NActive=   14 NUniq=   14 SFac= 1.00D+00 NAtFMM=   60 NAOKFM=F Big=F
 One-electron integrals computed using PRISM.
 NBasis=   106 RedAO= T  NBF=   106
 NBsUse=   106 1.00D-06 NBFU=   106
 Initial guess read from the read-write file.
 B after Tr=     0.000000    0.000000    0.000000
         Rot=    1.000000    0.000000    0.000000    0.000000 Ang=   0.00 deg.
 Initial guess orbital symmetries:
       Occupied  (A) (A) (A) (A) (A) (A) (A) (A) (A) (A) (A) (A)
                 (A) (A) (A) (A) (A) (A) (A) (A) (A) (A)
       Virtual   (A) (A) (A) (A) (A) (A) (A) (A) (A) (A) (A) (A)
                 (A) (A) (A) (A) (A) (A) (A) (A) (A) (A) (A) (A)
                 (A) (A) (A) (A) (A) (A) (A) (A) (A) (A) (A) (A)
                 (A) (A) (A) (A) (A) (A) (A) (A) (A) (A) (A) (A)
                 (A) (A) (A) (A) (A) (A) (A) (A) (A) (A) (A) (A)
                 (A) (A) (A) (A) (A) (A) (A) (A) (A) (A) (A) (A)
                 (A) (A) (A) (A) (A) (A) (A) (A) (A) (A) (A) (A)
 Harris functional with IExCor=  402 diagonalized for initial guess.
 ExpMin= 1.61D-01 ExpMax= 3.05D+03 ExpMxC= 4.57D+02 IAcc=1 IRadAn=         1 AccDes= 0.00D+00
 HarFok:  IExCor=  402 AccDes= 0.00D+00 IRadAn=         1 IDoV= 1
 ScaDFX=  1.000000  1.000000  1.000000  1.000000
 FoFCou: FMM=F IPFlag=           0 FMFlag=      100000 FMFlg1=           0
         NFxFlg=           0 DoJE=T BraDBF=F KetDBF=T FulRan=T
         Omega=  0.000000  0.000000  1.000000  0.000000  0.000000 ICntrl=     500 IOpCl=  0
         NMat0=    1 NMatS0=    1 NMatT0=    0 NMatD0=    1 NMtDS0=    0 NMtDT0=    0
         I1Cent=           4 NGrid=           0.
 Petite list used in FoFCou.
 Requested convergence on RMS density matrix=1.00D-08 within 128 cycles.
 Requested convergence on MAX density matrix=1.00D-06.
 Requested convergence on             energy=1.00D-06.
 No special actions if energy rises.
 Keep R1 ints in memory in canonical form, NReq=17179717.
 Integral accuracy reduced to 1.0D-05 until final iterations.
 Initial convergence to 1.0D-05 achieved.  Increase integral accuracy.
 SCF Done:  E(RB3LYP) =  -233.392516201     A.U. after   12 cycles
             Convg  =    0.5554D-08             -V/T =  2.0100
 Calling FoFJK, ICntrl=      2127 FMM=F ISym2X=0 I1Cent= 0 IOpClX= 0 NMat=1 NMatS=1 NMatT=0.
 ***** Axes restored to original set *****
 -------------------------------------------------------------------
 Center     Atomic                   Forces (Hartrees/Bohr)
 Number     Number              X              Y              Z
 -------------------------------------------------------------------
      1        6          -0.001518422   -0.000079761   -0.001235024
      2        1          -0.000501006    0.000054834    0.000566199
      3        1           0.001266589   -0.000024679   -0.000039902
      4        6          -0.004538348    0.000435261    0.002714736
      5        1          -0.001017598   -0.000089192   -0.000810351
      6        6           0.002003242   -0.000385523   -0.004294413
      7        1           0.001381819   -0.000088531    0.001380537
      8        6          -0.006539510    0.000634995    0.002699256
      9        1          -0.001253120   -0.000151409   -0.001263980
     10        6           0.005965713   -0.000959831    0.003793020
     11        1           0.001223382    0.000298511   -0.001352501
     12        6           0.004343577    0.000185595   -0.002910123
     13        1           0.000171955    0.000041436    0.001391046
     14        1          -0.000988272    0.000128293   -0.000638500
 -------------------------------------------------------------------
 Cartesian Forces:  Max     0.006539510 RMS     0.002187608

 GradGradGradGradGradGradGradGradGradGradGradGradGradGradGradGradGradGrad
 Berny optimization.
 Using GEDIIS/GDIIS optimizer.
 Internal  Forces:  Max     0.010723005 RMS     0.002039510
 Search for a local minimum.
 Step number   3 out of a maximum of   61
 All quantities printed in internal units (Hartrees-Bohrs-Radians)
 Mixed Optimization -- RFO/linear search
 Update second derivatives using D2CorX and points    1    2    3
 DE= -1.12D-03 DEPred=-1.67D-03 R= 6.72D-01
 SS=  1.41D+00  RLast= 1.66D-01 DXNew= 8.4853D-01 4.9847D-01
 Trust test= 6.72D-01 RLast= 1.66D-01 DXMaxT set to 5.05D-01
 ITU=  1  1  0
 Use linear search instead of GDIIS.
     Eigenvalues ---    0.00234   0.00237   0.01494   0.01502   0.01504
     Eigenvalues ---    0.01514   0.02674   0.02681   0.02681   0.02681
     Eigenvalues ---    0.02685   0.14729   0.16000   0.16000   0.16000
     Eigenvalues ---    0.16000   0.16000   0.16165   0.16525   0.19919
     Eigenvalues ---    0.22000   0.22004   0.24792   0.30115   0.34670
     Eigenvalues ---    0.36353   0.37230   0.37230   0.37230   0.37230
     Eigenvalues ---    0.37230   0.37435   0.37829   0.53885   0.54110
     Eigenvalues ---    0.55325
 RFO step:  Lambda=-2.76544293D-04 EMin= 2.33519842D-03
 Quartic linear search produced a step of -0.27611.
 Iteration  1 RMS(Cart)=  0.04595875 RMS(Int)=  0.00100096
 Iteration  2 RMS(Cart)=  0.00146756 RMS(Int)=  0.00000362
 Iteration  3 RMS(Cart)=  0.00000101 RMS(Int)=  0.00000358
 Iteration  4 RMS(Cart)=  0.00000000 RMS(Int)=  0.00000358
 Variable       Old X    -DE/DX   Delta X   Delta X   Delta X     New X
                                 (Linear)    (Quad)   (Total)
    R1        2.05768  -0.00072  -0.00230   0.00033  -0.00197   2.05571
    R2        2.05484  -0.00127  -0.00150  -0.00150  -0.00300   2.05184
    R3        2.53711   0.00101   0.00048   0.00133   0.00181   2.53891
    R4        2.06245  -0.00031  -0.00330   0.00209  -0.00122   2.06123
    R5        2.72404   0.00634   0.01359   0.00498   0.01858   2.74262
    R6        2.06254  -0.00066  -0.00542   0.00370  -0.00172   2.06082
    R7        2.54985   0.00308   0.00033   0.00393   0.00427   2.55412
    R8        2.06264  -0.00056  -0.00351   0.00184  -0.00167   2.06096
    R9        2.73527   0.01072   0.02629   0.00182   0.02811   2.76338
   R10        2.06238  -0.00083  -0.00332   0.00113  -0.00219   2.06019
   R11        2.53147   0.00395   0.00220   0.00348   0.00568   2.53715
   R12        2.05778  -0.00136  -0.00429   0.00127  -0.00303   2.05475
   R13        2.05490  -0.00108  -0.00180  -0.00083  -0.00263   2.05227
    A1        2.03717  -0.00013   0.00725  -0.00755  -0.00030   2.03687
    A2        2.11802   0.00036  -0.00262   0.00412   0.00150   2.11952
    A3        2.12799  -0.00023  -0.00463   0.00344  -0.00120   2.12680
    A4        2.08747  -0.00124   0.00412  -0.00985  -0.00573   2.08174
    A5        2.17443  -0.00013  -0.01006   0.00890  -0.00117   2.17326
    A6        2.02128   0.00137   0.00594   0.00096   0.00690   2.02818
    A7        2.01961   0.00176   0.00330   0.00594   0.00923   2.02884
    A8        2.16103   0.00024  -0.00907   0.00942   0.00035   2.16138
    A9        2.10252  -0.00201   0.00577  -0.01538  -0.00961   2.09291
   A10        2.05779  -0.00162  -0.00145  -0.00479  -0.00624   2.05155
   A11        2.22199  -0.00025  -0.00284  -0.00052  -0.00336   2.21864
   A12        2.00334   0.00187   0.00428   0.00530   0.00958   2.01292
   A13        1.99392   0.00168   0.00565   0.00326   0.00891   2.00284
   A14        2.22572   0.00004  -0.00216  -0.00028  -0.00244   2.22328
   A15        2.06351  -0.00172  -0.00350  -0.00301  -0.00652   2.05699
   A16        2.14199  -0.00067  -0.00141  -0.00236  -0.00377   2.13822
   A17        2.10935   0.00084  -0.00425   0.00811   0.00387   2.11322
   A18        2.03184  -0.00016   0.00564  -0.00576  -0.00012   2.03172
    D1        3.14007   0.00002   0.00054  -0.00034   0.00020   3.14027
    D2       -0.00048   0.00001  -0.00006   0.00036   0.00030  -0.00017
    D3        0.00000   0.00001   0.00002   0.00026   0.00029   0.00029
    D4       -3.14054   0.00000  -0.00058   0.00097   0.00039  -3.14016
    D5       -0.00459  -0.00004   0.00070  -0.00602  -0.00533  -0.00992
    D6       -3.13854   0.00004   0.00060  -0.00271  -0.00211  -3.14064
    D7        3.13802  -0.00005   0.00011  -0.00533  -0.00522   3.13279
    D8        0.00407   0.00003   0.00002  -0.00202  -0.00200   0.00207
    D9        0.02164   0.00008  -0.00116   0.00315   0.00200   0.02364
   D10       -3.13264   0.00004  -0.00176   0.00221   0.00046  -3.13219
   D11       -3.11196   0.00015  -0.00125   0.00651   0.00526  -3.10671
   D12        0.01694   0.00011  -0.00185   0.00557   0.00371   0.02065
   D13       -2.93233   0.00006  -0.01271   0.09932   0.08661  -2.84573
   D14        0.21830   0.00020  -0.01131   0.10268   0.09137   0.30967
   D15        0.19690   0.00000  -0.01334   0.09834   0.08500   0.28190
   D16       -2.93564   0.00014  -0.01194   0.10170   0.08976  -2.84588
   D17        0.01821   0.00014  -0.00143   0.00409   0.00266   0.02087
   D18       -3.12695  -0.00009  -0.00362   0.00180  -0.00181  -3.12876
   D19       -3.11402   0.00027  -0.00005   0.00753   0.00749  -3.10654
   D20        0.02400   0.00004  -0.00223   0.00525   0.00301   0.02702
         Item               Value     Threshold  Converged?
 Maximum Force            0.010723     0.000450     NO 
 RMS     Force            0.002040     0.000300     NO 
 Maximum Displacement     0.175511     0.001800     NO 
 RMS     Displacement     0.046010     0.001200     NO 
 Predicted change in Energy=-2.994529D-04
 GradGradGradGradGradGradGradGradGradGradGradGradGradGradGradGradGradGrad

                          Input orientation:                          
 ---------------------------------------------------------------------
 Center     Atomic      Atomic             Coordinates (Angstroms)
 Number     Number       Type             X           Y           Z
 ---------------------------------------------------------------------
      1          6           0       -4.579672    1.981789   -2.300137
      2          1           0       -4.156788    1.832861   -3.291286
      3          1           0       -5.662051    2.037588   -2.234799
      4          6           0       -3.797042    2.092465   -1.213707
      5          1           0       -4.258621    2.242404   -0.236868
      6          6           0       -2.347278    2.028352   -1.234474
      7          1           0       -1.885498    1.869939   -2.209634
      8          6           0       -1.573097    2.140397   -0.132264
      9          1           0       -2.076543    2.264704    0.827178
     10          6           0       -0.112665    2.097605   -0.071591
     11          1           0        0.297855    1.917445    0.922169
     12          6           0        0.750681    2.267986   -1.085586
     13          1           0        0.425081    2.483611   -2.100363
     14          1           0        1.822916    2.202958   -0.925870
 ---------------------------------------------------------------------
                    Distance matrix (angstroms):
                    1          2          3          4          5
     1  C    0.000000
     2  H    1.087835   0.000000
     3  H    1.085784   1.850377   0.000000
     4  C    1.343536   2.124416   2.126945   0.000000
     5  H    2.104299   3.083434   2.450162   1.090758   0.000000
     6  C    2.474144   2.746456   3.462435   1.451330   2.166626
     7  H    2.698013   2.515970   3.780357   2.166885   3.108416
     8  C    3.710030   4.092610   4.598996   2.473409   2.689496
     9  H    4.015694   4.634183   4.720503   2.674883   2.427788
    10  C    4.993393   5.176046   5.956404   3.857342   4.151775
    11  H    5.846167   6.132226   6.745470   4.621773   4.712795
    12  C    5.474459   5.397934   6.518965   4.552912   5.080757
    13  H    5.033814   4.778629   6.104932   4.331914   5.046570
    14  H    6.552149   6.441197   7.600354   5.628409   6.120570
                    6          7          8          9         10
     6  C    0.000000
     7  H    1.090538   0.000000
     8  C    1.351583   2.118066   0.000000
     9  H    2.092741   3.068316   1.090614   0.000000
    10  C    2.520037   2.786753   1.462317   2.166223   0.000000
    11  H    3.414694   3.818046   2.159166   2.401537   1.090203
    12  C    3.110778   2.893331   2.514964   3.413484   1.342603
    13  H    2.939898   2.393180   2.825584   3.857012   2.134031
    14  H    4.185241   3.938436   3.488070   4.275836   2.118341
                   11         12         13         14
    11  H    0.000000
    12  C    2.087824   0.000000
    13  H    3.077731   1.087328   0.000000
    14  H    2.413002   1.086014   1.847198   0.000000
 Stoichiometry    C6H8
 Framework group  C1[X(C6H8)]
 Deg. of freedom    36
 Full point group                 C1      NOp   1
 Largest Abelian subgroup         C1      NOp   1
 Largest concise Abelian subgroup C1      NOp   1
                         Standard orientation:                         
 ---------------------------------------------------------------------
 Center     Atomic      Atomic             Coordinates (Angstroms)
 Number     Number       Type             X           Y           Z
 ---------------------------------------------------------------------
      1          6           0        2.887869    0.485602    0.022221
      2          1           0        2.761554    1.554864    0.177495
      3          1           0        3.907181    0.122898   -0.069302
      4          6           0        1.831526   -0.341117   -0.053690
      5          1           0        1.998927   -1.407355   -0.211382
      6          6           0        0.447375    0.080582    0.058800
      7          1           0        0.279606    1.145247    0.224981
      8          6           0       -0.605275   -0.763638   -0.018638
      9          1           0       -0.391970   -1.824811   -0.152253
     10          6           0       -2.022967   -0.417192    0.073535
     11          1           0       -2.686330   -1.258539    0.275099
     12          6           0       -2.576867    0.796686   -0.075730
     13          1           0       -1.990443    1.681829   -0.310057
     14          1           0       -3.648481    0.940327    0.026432
 ---------------------------------------------------------------------
 Rotational constants (GHZ):     14.0350461      1.5385289      1.3907148
 Standard basis: 6-31G(d) (6D, 7F)
 There are   106 symmetry adapted basis functions of A   symmetry.
 Integral buffers will be    131072 words long.
 Raffenetti 2 integral format.
 Two-electron integral symmetry is turned on.
   106 basis functions,   200 primitive gaussians,   106 cartesian basis functions
    22 alpha electrons       22 beta electrons
       nuclear repulsion energy       195.4281163549 Hartrees.
 NAtoms=   14 NActive=   14 NUniq=   14 SFac= 1.00D+00 NAtFMM=   60 NAOKFM=F Big=F
 One-electron integrals computed using PRISM.
 NBasis=   106 RedAO= T  NBF=   106
 NBsUse=   106 1.00D-06 NBFU=   106
 Initial guess read from the read-write file.
 B after Tr=     0.000000    0.000000    0.000000
         Rot=    1.000000    0.000000    0.000000    0.000000 Ang=   0.00 deg.
 Initial guess orbital symmetries:
       Occupied  (A) (A) (A) (A) (A) (A) (A) (A) (A) (A) (A) (A)
                 (A) (A) (A) (A) (A) (A) (A) (A) (A) (A)
       Virtual   (A) (A) (A) (A) (A) (A) (A) (A) (A) (A) (A) (A)
                 (A) (A) (A) (A) (A) (A) (A) (A) (A) (A) (A) (A)
                 (A) (A) (A) (A) (A) (A) (A) (A) (A) (A) (A) (A)
                 (A) (A) (A) (A) (A) (A) (A) (A) (A) (A) (A) (A)
                 (A) (A) (A) (A) (A) (A) (A) (A) (A) (A) (A) (A)
                 (A) (A) (A) (A) (A) (A) (A) (A) (A) (A) (A) (A)
                 (A) (A) (A) (A) (A) (A) (A) (A) (A) (A) (A) (A)
 Harris functional with IExCor=  402 diagonalized for initial guess.
 ExpMin= 1.61D-01 ExpMax= 3.05D+03 ExpMxC= 4.57D+02 IAcc=1 IRadAn=         1 AccDes= 0.00D+00
 HarFok:  IExCor=  402 AccDes= 0.00D+00 IRadAn=         1 IDoV= 1
 ScaDFX=  1.000000  1.000000  1.000000  1.000000
 FoFCou: FMM=F IPFlag=           0 FMFlag=      100000 FMFlg1=           0
         NFxFlg=           0 DoJE=T BraDBF=F KetDBF=T FulRan=T
         Omega=  0.000000  0.000000  1.000000  0.000000  0.000000 ICntrl=     500 IOpCl=  0
         NMat0=    1 NMatS0=    1 NMatT0=    0 NMatD0=    1 NMtDS0=    0 NMtDT0=    0
         I1Cent=           4 NGrid=           0.
 Petite list used in FoFCou.
 Requested convergence on RMS density matrix=1.00D-08 within 128 cycles.
 Requested convergence on MAX density matrix=1.00D-06.
 Requested convergence on             energy=1.00D-06.
 No special actions if energy rises.
 Keep R1 ints in memory in canonical form, NReq=17179717.
 Integral accuracy reduced to 1.0D-05 until final iterations.
 Initial convergence to 1.0D-05 achieved.  Increase integral accuracy.
 SCF Done:  E(RB3LYP) =  -233.392832993     A.U. after   12 cycles
             Convg  =    0.3576D-08             -V/T =  2.0103
 Calling FoFJK, ICntrl=      2127 FMM=F ISym2X=0 I1Cent= 0 IOpClX= 0 NMat=1 NMatS=1 NMatT=0.
 ***** Axes restored to original set *****
 -------------------------------------------------------------------
 Center     Atomic                   Forces (Hartrees/Bohr)
 Number     Number              X              Y              Z
 -------------------------------------------------------------------
      1        6           0.000591831   -0.000014086    0.000290137
      2        1          -0.000152833   -0.000006174   -0.000025772
      3        1           0.000152376    0.000006725    0.000088707
      4        6           0.000258512    0.000180044    0.000241125
      5        1          -0.000143339   -0.000002457   -0.000146328
      6        6          -0.000350310    0.000028797   -0.000861171
      7        1           0.000442860   -0.000198159    0.000423609
      8        6          -0.000373422    0.000402486    0.000033045
      9        1          -0.000093581   -0.000339966   -0.000004080
     10        6           0.000201537   -0.000358227   -0.000125381
     11        1           0.000162461    0.000341280   -0.000094120
     12        6          -0.000350820   -0.000145012   -0.000022621
     13        1          -0.000196812    0.000247509    0.000259752
     14        1          -0.000148458   -0.000142762   -0.000056902
 -------------------------------------------------------------------
 Cartesian Forces:  Max     0.000861171 RMS     0.000271249

 GradGradGradGradGradGradGradGradGradGradGradGradGradGradGradGradGradGrad
 Berny optimization.
 Using GEDIIS/GDIIS optimizer.
 Internal  Forces:  Max     0.001387503 RMS     0.000407697
 Search for a local minimum.
 Step number   4 out of a maximum of   61
 All quantities printed in internal units (Hartrees-Bohrs-Radians)
 Mixed Optimization -- En-DIIS/RFO-DIIS
 Update second derivatives using D2CorX and points    1    2    3    4
 DE= -3.17D-04 DEPred=-2.99D-04 R= 1.06D+00
 SS=  1.41D+00  RLast= 1.82D-01 DXNew= 8.4853D-01 5.4587D-01
 Trust test= 1.06D+00 RLast= 1.82D-01 DXMaxT set to 5.46D-01
 ITU=  1  1  1  0
 Use linear search instead of GDIIS.
     Eigenvalues ---    0.00188   0.00238   0.01484   0.01491   0.01494
     Eigenvalues ---    0.01500   0.02611   0.02681   0.02681   0.02682
     Eigenvalues ---    0.02685   0.14551   0.15878   0.15999   0.16000
     Eigenvalues ---    0.16000   0.16000   0.16154   0.16197   0.20177
     Eigenvalues ---    0.21992   0.22004   0.24314   0.30984   0.36349
     Eigenvalues ---    0.37072   0.37223   0.37230   0.37230   0.37230
     Eigenvalues ---    0.37230   0.37699   0.40635   0.53887   0.54110
     Eigenvalues ---    0.59276
 RFO step:  Lambda=-4.89910446D-05 EMin= 1.87805810D-03
 Quartic linear search produced a step of  0.01124.
 Iteration  1 RMS(Cart)=  0.01714377 RMS(Int)=  0.00014746
 Iteration  2 RMS(Cart)=  0.00020246 RMS(Int)=  0.00000431
 Iteration  3 RMS(Cart)=  0.00000002 RMS(Int)=  0.00000431
 Variable       Old X    -DE/DX   Delta X   Delta X   Delta X     New X
                                 (Linear)    (Quad)   (Total)
    R1        2.05571  -0.00004  -0.00002  -0.00007  -0.00009   2.05562
    R2        2.05184  -0.00014  -0.00003  -0.00047  -0.00051   2.05133
    R3        2.53891  -0.00063   0.00002  -0.00116  -0.00114   2.53777
    R4        2.06123  -0.00007  -0.00001  -0.00006  -0.00007   2.06116
    R5        2.74262  -0.00069   0.00021  -0.00172  -0.00152   2.74110
    R6        2.06082  -0.00016  -0.00002  -0.00042  -0.00044   2.06038
    R7        2.55412  -0.00048   0.00005  -0.00051  -0.00046   2.55366
    R8        2.06096   0.00000  -0.00002   0.00007   0.00006   2.06102
    R9        2.76338  -0.00033   0.00032   0.00103   0.00135   2.76472
   R10        2.06019  -0.00008  -0.00002  -0.00020  -0.00023   2.05996
   R11        2.53715  -0.00058   0.00006  -0.00065  -0.00059   2.53657
   R12        2.05475  -0.00013  -0.00003  -0.00049  -0.00052   2.05423
   R13        2.05227  -0.00015  -0.00003  -0.00045  -0.00048   2.05179
    A1        2.03687  -0.00003   0.00000  -0.00059  -0.00059   2.03628
    A2        2.11952   0.00028   0.00002   0.00204   0.00205   2.12157
    A3        2.12680  -0.00025  -0.00001  -0.00145  -0.00146   2.12534
    A4        2.08174  -0.00008  -0.00006  -0.00126  -0.00132   2.08042
    A5        2.17326  -0.00023  -0.00001  -0.00070  -0.00071   2.17255
    A6        2.02818   0.00031   0.00008   0.00196   0.00203   2.03021
    A7        2.02884   0.00067   0.00010   0.00438   0.00448   2.03333
    A8        2.16138  -0.00015   0.00000  -0.00031  -0.00031   2.16107
    A9        2.09291  -0.00052  -0.00011  -0.00411  -0.00422   2.08868
   A10        2.05155   0.00060  -0.00007   0.00142   0.00134   2.05289
   A11        2.21864  -0.00139  -0.00004  -0.00553  -0.00557   2.21306
   A12        2.01292   0.00079   0.00011   0.00401   0.00411   2.01702
   A13        2.00284   0.00083   0.00010   0.00426   0.00435   2.00719
   A14        2.22328  -0.00122  -0.00003  -0.00468  -0.00471   2.21856
   A15        2.05699   0.00040  -0.00007   0.00034   0.00026   2.05725
   A16        2.13822  -0.00036  -0.00004  -0.00227  -0.00231   2.13591
   A17        2.11322   0.00019   0.00004   0.00165   0.00169   2.11491
   A18        2.03172   0.00017   0.00000   0.00058   0.00058   2.03230
    D1        3.14027   0.00002   0.00000   0.00098   0.00099   3.14126
    D2       -0.00017   0.00000   0.00000  -0.00019  -0.00018  -0.00036
    D3        0.00029   0.00001   0.00000   0.00059   0.00059   0.00088
    D4       -3.14016  -0.00001   0.00000  -0.00058  -0.00057  -3.14073
    D5       -0.00992   0.00001  -0.00006   0.01145   0.01138   0.00147
    D6       -3.14064   0.00007  -0.00002   0.01591   0.01589  -3.12475
    D7        3.13279  -0.00001  -0.00006   0.01031   0.01025  -3.14015
    D8        0.00207   0.00005  -0.00002   0.01478   0.01476   0.01683
    D9        0.02364   0.00022   0.00002   0.00975   0.00977   0.03341
   D10       -3.13219   0.00010   0.00001   0.00107   0.00108  -3.13111
   D11       -3.10671   0.00027   0.00006   0.01431   0.01437  -3.09234
   D12        0.02065   0.00016   0.00004   0.00564   0.00567   0.02633
   D13       -2.84573  -0.00001   0.00097   0.01142   0.01240  -2.83333
   D14        0.30967   0.00009   0.00103   0.01882   0.01985   0.32952
   D15        0.28190  -0.00012   0.00096   0.00289   0.00384   0.28574
   D16       -2.84588  -0.00003   0.00101   0.01029   0.01130  -2.83459
   D17        0.02087   0.00020   0.00003   0.00668   0.00671   0.02758
   D18       -3.12876   0.00009  -0.00002   0.00166   0.00164  -3.12712
   D19       -3.10654   0.00029   0.00008   0.01424   0.01433  -3.09221
   D20        0.02702   0.00018   0.00003   0.00923   0.00926   0.03627
         Item               Value     Threshold  Converged?
 Maximum Force            0.001388     0.000450     NO 
 RMS     Force            0.000408     0.000300     NO 
 Maximum Displacement     0.058781     0.001800     NO 
 RMS     Displacement     0.017135     0.001200     NO 
 Predicted change in Energy=-2.458418D-05
 GradGradGradGradGradGradGradGradGradGradGradGradGradGradGradGradGradGrad

                          Input orientation:                          
 ---------------------------------------------------------------------
 Center     Atomic      Atomic             Coordinates (Angstroms)
 Number     Number       Type             X           Y           Z
 ---------------------------------------------------------------------
      1          6           0       -4.574485    1.976446   -2.300930
      2          1           0       -4.152007    1.806916   -3.288882
      3          1           0       -5.656338    2.039444   -2.237899
      4          6           0       -3.794364    2.102552   -1.215127
      5          1           0       -4.258903    2.272061   -0.242943
      6          6           0       -2.345772    2.029505   -1.231837
      7          1           0       -1.878278    1.861525   -2.202401
      8          6           0       -1.574336    2.139640   -0.127809
      9          1           0       -2.078817    2.260171    0.831605
     10          6           0       -0.113318    2.088256   -0.070876
     11          1           0        0.302748    1.895537    0.918078
     12          6           0        0.743860    2.273417   -1.087100
     13          1           0        0.410486    2.514717   -2.093241
     14          1           0        1.816803    2.199916   -0.937870
 ---------------------------------------------------------------------
                    Distance matrix (angstroms):
                    1          2          3          4          5
     1  C    0.000000
     2  H    1.087785   0.000000
     3  H    1.085517   1.849769   0.000000
     4  C    1.342930   2.125034   2.125322   0.000000
     5  H    2.102924   3.083104   2.446791   1.090720   0.000000
     6  C    2.472435   2.746537   3.460073   1.450528   2.167213
     7  H    2.700454   2.520569   3.782414   2.168915   3.110529
     8  C    3.708097   4.092367   4.596222   2.472278   2.690295
     9  H    4.015176   4.634864   4.719029   2.675267   2.430549
    10  C    4.988753   5.171626   5.951759   3.854817   4.153223
    11  H    5.844310   6.127904   6.744746   4.623823   4.722118
    12  C    5.463183   5.388411   6.507043   4.543243   5.073484
    13  H    5.018248   4.769369   6.087131   4.315290   5.028487
    14  H    6.538841   6.427161   7.587072   5.618856   6.115744
                    6          7          8          9         10
     6  C    0.000000
     7  H    1.090305   0.000000
     8  C    1.351340   2.115103   0.000000
     9  H    2.093386   3.066648   1.090644   0.000000
    10  C    2.516969   2.776669   1.463029   2.169611   0.000000
    11  H    3.413904   3.807285   2.162617   2.410869   1.090083
    12  C    3.102623   2.879089   2.512403   3.413079   1.342293
    13  H    2.928209   2.382649   2.818355   3.849175   2.132182
    14  H    4.176421   3.920098   3.487070   4.279080   2.118847
                   11         12         13         14
    11  H    0.000000
    12  C    2.087609   0.000000
    13  H    3.076204   1.087052   0.000000
    14  H    2.414446   1.085762   1.847082   0.000000
 Stoichiometry    C6H8
 Framework group  C1[X(C6H8)]
 Deg. of freedom    36
 Full point group                 C1      NOp   1
 Largest Abelian subgroup         C1      NOp   1
 Largest concise Abelian subgroup C1      NOp   1
                         Standard orientation:                         
 ---------------------------------------------------------------------
 Center     Atomic      Atomic             Coordinates (Angstroms)
 Number     Number       Type             X           Y           Z
 ---------------------------------------------------------------------
      1          6           0        2.883844    0.486098    0.028914
      2          1           0        2.758467    1.552160    0.205181
      3          1           0        3.902808    0.125065   -0.069645
      4          6           0        1.828976   -0.339880   -0.063151
[...]
    D7        3.13284   0.00000   0.00000   0.00006   0.00006   3.13291
    D8        0.00607   0.00000   0.00000   0.00005   0.00005   0.00612
    D9        0.03718   0.00000   0.00000   0.00000   0.00000   0.03718
   D10       -3.12649   0.00000   0.00000   0.00012   0.00012  -3.12637
   D11       -3.08918   0.00000   0.00000  -0.00002  -0.00002  -3.08919
   D12        0.03033   0.00000   0.00000   0.00011   0.00011   0.03044
   D13       -2.79285   0.00000   0.00000   0.00011   0.00011  -2.79274
   D14        0.36867   0.00000   0.00000   0.00004   0.00004   0.36872
   D15        0.32707   0.00000   0.00000   0.00023   0.00023   0.32729
   D16       -2.79460   0.00000   0.00000   0.00016   0.00016  -2.79443
   D17        0.03168   0.00000   0.00000   0.00010   0.00010   0.03178
   D18       -3.12209   0.00000   0.00000   0.00015   0.00015  -3.12194
   D19       -3.08949   0.00000   0.00000   0.00004   0.00004  -3.08945
   D20        0.03993   0.00000   0.00000   0.00009   0.00009   0.04002
         Item               Value     Threshold  Converged?
 Maximum Force            0.000020     0.000450     YES
 RMS     Force            0.000006     0.000300     YES
 Maximum Displacement     0.000439     0.001800     YES
 RMS     Displacement     0.000149     0.001200     YES
 Predicted change in Energy=-6.715777D-09
 Optimization completed.
    -- Stationary point found.
                           ----------------------------
                           !   Optimized Parameters   !
                           ! (Angstroms and Degrees)  !
 --------------------------                            --------------------------
 ! Name  Definition              Value          Derivative Info.                !
 --------------------------------------------------------------------------------
 ! R1    R(1,2)                  1.0877         -DE/DX =    0.0                 !
 ! R2    R(1,3)                  1.0857         -DE/DX =    0.0                 !
 ! R3    R(1,4)                  1.343          -DE/DX =    0.0                 !
 ! R4    R(4,5)                  1.0906         -DE/DX =    0.0                 !
 ! R5    R(4,6)                  1.4504         -DE/DX =    0.0                 !
 ! R6    R(6,7)                  1.0901         -DE/DX =    0.0                 !
 ! R7    R(6,8)                  1.3514         -DE/DX =    0.0                 !
 ! R8    R(8,9)                  1.0906         -DE/DX =    0.0                 !
 ! R9    R(8,10)                 1.4623         -DE/DX =    0.0                 !
 ! R10   R(10,11)                1.0901         -DE/DX =    0.0                 !
 ! R11   R(10,12)                1.3421         -DE/DX =    0.0                 !
 ! R12   R(12,13)                1.0871         -DE/DX =    0.0                 !
 ! R13   R(12,14)                1.0858         -DE/DX =    0.0                 !
 ! A1    A(2,1,3)              116.6696         -DE/DX =    0.0                 !
 ! A2    A(2,1,4)              121.5761         -DE/DX =    0.0                 !
 ! A3    A(3,1,4)              121.7543         -DE/DX =    0.0                 !
 ! A4    A(1,4,5)              119.1915         -DE/DX =    0.0                 !
 ! A5    A(1,4,6)              124.4908         -DE/DX =    0.0                 !
 ! A6    A(5,4,6)              116.3177         -DE/DX =    0.0                 !
 ! A7    A(4,6,7)              116.5794         -DE/DX =    0.0                 !
 ! A8    A(4,6,8)              123.867          -DE/DX =    0.0                 !
 ! A9    A(7,6,8)              119.5483         -DE/DX =    0.0                 !
 ! A10   A(6,8,9)              117.8069         -DE/DX =    0.0                 !
 ! A11   A(6,8,10)             126.4649         -DE/DX =    0.0                 !
 ! A12   A(9,8,10)             115.7172         -DE/DX =    0.0                 !
 ! A13   A(8,10,11)            115.1796         -DE/DX =    0.0                 !
 ! A14   A(8,10,12)            126.7833         -DE/DX =    0.0                 !
 ! A15   A(11,10,12)           118.0278         -DE/DX =    0.0                 !
 ! A16   A(10,12,13)           122.2484         -DE/DX =    0.0                 !
 ! A17   A(10,12,14)           121.2257         -DE/DX =    0.0                 !
 ! A18   A(13,12,14)           116.5225         -DE/DX =    0.0                 !
 ! D1    D(2,1,4,5)            179.9279         -DE/DX =    0.0                 !
 ! D2    D(2,1,4,6)             -0.0127         -DE/DX =    0.0                 !
 ! D3    D(3,1,4,5)              0.0322         -DE/DX =    0.0                 !
 ! D4    D(3,1,4,6)           -179.9084         -DE/DX =    0.0                 !
 ! D5    D(1,4,6,7)             -0.5591         -DE/DX =    0.0                 !
 ! D6    D(1,4,6,8)           -179.7099         -DE/DX =    0.0                 !
 ! D7    D(5,4,6,7)            179.4988         -DE/DX =    0.0                 !
 ! D8    D(5,4,6,8)              0.3479         -DE/DX =    0.0                 !
 ! D9    D(4,6,8,9)              2.1304         -DE/DX =    0.0                 !
 ! D10   D(4,6,8,10)          -179.1349         -DE/DX =    0.0                 !
 ! D11   D(7,6,8,9)           -176.9967         -DE/DX =    0.0                 !
 ! D12   D(7,6,8,10)             1.738          -DE/DX =    0.0                 !
 ! D13   D(6,8,10,11)         -160.0183         -DE/DX =    0.0                 !
 ! D14   D(6,8,10,12)           21.1235         -DE/DX =    0.0                 !
 ! D15   D(9,8,10,11)           18.7395         -DE/DX =    0.0                 !
 ! D16   D(9,8,10,12)         -160.1187         -DE/DX =    0.0                 !
 ! D17   D(8,10,12,13)           1.8149         -DE/DX =    0.0                 !
 ! D18   D(8,10,12,14)        -178.8827         -DE/DX =    0.0                 !
 ! D19   D(11,10,12,13)       -177.0145         -DE/DX =    0.0                 !
 ! D20   D(11,10,12,14)          2.2878         -DE/DX =    0.0                 !
 --------------------------------------------------------------------------------
 GradGradGradGradGradGradGradGradGradGradGradGradGradGradGradGradGradGrad

 1\1\GINC-NISER-THINKCENTRE-M93P\Freq\RB3LYP\6-31G(d)\C6H8\STUDENT\02-M
 ar-2021\0\\#N Geom=AllCheck Guess=TCheck SCRF=Check GenChk RB3LYP/6-31
 G(d) Freq\\Title Card Required\\0,1\C,-4.5691733151,1.9762714611,-2.30
 3471622\H,-4.1451219309,1.7944403263,-3.2885054791\H,-5.6506636012,2.0
 510202486,-2.2447456614\C,-3.79176315,2.1036980193,-1.2157419798\H,-4.
 2581987632,2.2866411851,-0.2470309809\C,-2.3440678604,2.0165140467,-1.
 2261371695\H,-1.8738433257,1.8253300264,-2.1908870725\C,-1.5741852973,
 2.1411520363,-0.122540645\H,-2.0766894053,2.2821537042,0.83506235\C,-0
 .1140349461,2.080912406,-0.0701279066\H,0.3062322049,1.8630947523,0.91
 18862802\C,0.7358043337,2.2852329895,-1.0886157812\H,0.3934135356,2.55
 37708697,-2.0848203381\H,1.8095708611,2.1998721684,-0.9515556641\\Vers
 ion=EM64L-G09RevC.01\State=1-A\HF=-233.3928716\RMSD=1.608e-09\RMSF=9.2
 41e-06\ZeroPoint=0.119062\Thermal=0.1258843\Dipole=0.0050868,-0.002853
 5,0.0475455\DipoleDeriv=-0.1458755,-0.045064,-0.1474003,-0.0168821,-0.
 3014538,0.0638599,-0.0794227,0.0611295,0.0258924,0.0062838,0.020979,0.
 0828196,0.0178089,0.1321905,-0.0360231,0.0366918,-0.035459,-0.0636503,
 -0.1061731,0.0121608,-0.0097545,0.0098176,0.1325659,-0.0135389,0.01150
 41,-0.0173534,0.0402005,0.2657937,-0.0000287,0.0628716,-0.0281699,-0.0
 70427,0.0168848,-0.1451089,0.0234633,0.0940342,-0.0151614,0.0111834,0.
 0209162,0.0154363,0.1015908,-0.0344056,0.0952894,-0.0362739,-0.0900506
 ,0.0050796,-0.0231768,0.0232419,-0.0296261,-0.0806078,0.0101564,0.0159
 858,0.0424968,0.0408863,-0.0169207,0.0166322,0.0424127,0.0246813,0.101
 6283,-0.0277992,0.0668473,-0.0374087,-0.0676976,0.0422545,-0.0092025,-
 0.1170861,0.0133666,-0.1252579,0.0985524,-0.3009768,0.0325364,0.069349
 4,-0.0267504,0.0165967,0.0864029,0.0324042,0.1117597,-0.0188593,0.0706
 278,-0.0247452,-0.0794393,0.273092,0.001487,0.0928252,-0.0799906,-0.08
 60979,-0.1093631,0.2927118,-0.0411274,0.1434322,-0.0249798,0.013909,-0
 .0602895,0.0305527,0.1039521,0.0418256,-0.0828733,0.0432827,-0.1102165
 ,-0.169781,-0.0511542,0.0017706,-0.0519578,-0.2694827,-0.066591,0.0570
 217,-0.0898106,-0.001636,0.0241456,0.0241148,-0.0685499,0.0181817,0.12
 0634,0.0463809,-0.0297242,0.0553736,-0.0604714,-0.1110073,0.0115632,-0
 .0101804,0.0443772,0.1290058,0.0289202,-0.0085739,0.0238959,0.0593667\
 Polar=121.9875693,3.5453518,24.1071379,21.0049564,1.7426818,72.1105595
 \PG=C01 [X(C6H8)]\NImag=0\\0.71936136,-0.02194926,0.11871314,0.0953745
 5,0.09776100,0.75213059,-0.10555043,0.02065403,0.10289592,0.10119076,0
 .02016717,-0.04190690,-0.04592393,-0.02187708,0.03150815,0.09922395,-0
 .04582543,-0.28414297,-0.10794744,0.05129846,0.30413918,-0.34270910,0.
 02167224,0.01809282,-0.00724089,0.00039424,-0.00116124,0.36261727,0.02
 245705,-0.03382551,-0.00541189,0.00469734,0.00190361,-0.00000783,-0.02
 342748,0.02398731,0.02259590,-0.00582933,-0.05962355,0.02610237,-0.001
 66660,0.00163134,-0.01759750,0.00635246,0.05480184,-0.24423627,-0.0170
 8319,-0.18223633,0.01171775,0.00137659,0.01254424,-0.01399225,-0.00357
 921,-0.02851047,0.65856405,-0.01947460,-0.05492054,-0.04415293,-0.0031
 3529,0.00403216,-0.00488420,0.00176485,0.00432960,0.00195351,-0.016430
 97,0.14894358,-0.19591376,-0.04301374,-0.39344065,-0.01727625,-0.00306
 614,-0.02150439,0.00402620,-0.00032434,0.00543928,0.09177629,0.0986995
 3,0.78303520,0.01105593,-0.00337461,-0.01875523,-0.00145213,0.00019253
 ,-0.00343584,0.00106705,-0.00042807,0.00017988,-0.10923759,0.02052357,
 0.10376756,0.11438614,0.00165316,0.00453299,-0.00321062,0.00025386,0.0
 1087853,-0.00191133,-0.00051301,-0.00678697,0.00128197,0.02026027,-0.0
 4977485,-0.04250737,-0.02268135,0.03646060,0.01271179,-0.00511341,-0.0
 2171021,-0.00314247,-0.00194927,-0.00213724,-0.00019542,0.00133342,0.0
 0107050,0.10251095,-0.04234347,-0.26812097,-0.11027288,0.04840071,0.28
 838437,-0.03775605,-0.00147208,-0.02429847,0.00141588,-0.00005340,0.00
 250553,0.00076304,0.00063793,-0.00098549,-0.25823525,0.01559744,0.0279
 2423,-0.01242152,0.00099829,-0.00058561,0.65699545,-0.00338331,0.00645
 358,0.00054790,-0.00077900,-0.00733914,0.00121522,0.00014027,0.0116338
 7,-0.00249920,0.01447530,-0.06362477,-0.00770423,0.00549037,0.00265187
 ,-0.00047929,-0.01830790,0.14810299,-0.03953413,0.00082333,-0.00255131
 ,-0.00143576,0.00142491,0.00119120,-0.00329459,-0.00230426,-0.00396610
 ,0.02696038,-0.00732167,-0.09904269,0.02924226,-0.00205848,0.00004437,
 0.07534019,0.09792474,0.76588017,0.00160475,0.00002428,0.00131529,0.00
 002250,-0.00018843,-0.00134501,0.00034450,-0.00012338,-0.00040300,-0.0
 1190187,0.00538507,0.02905023,-0.00521436,0.00044343,-0.00040593,-0.10
 940850,0.02228143,0.10305471,0.11494093,-0.00034824,-0.00141205,0.0003
 5182,0.00010493,0.00032044,0.00010756,-0.00001932,-0.00024645,0.000105
 16,0.00073437,0.00271370,-0.00231685,0.00043452,0.00341647,-0.00036639
 ,0.02132292,-0.05036236,-0.04626197,-0.02375569,0.03580161,-0.00086841
 ,0.00046744,0.00114085,0.00056546,-0.00002022,0.00033653,0.00008758,0.
 00007953,0.00019777,-0.00086251,-0.00020294,0.00043298,-0.00061658,-0.
 00043085,0.00073867,0.10228756,-0.04491600,-0.26718799,-0.11183344,0.0
 5106909,0.28746858,0.00120670,0.00195611,0.01031759,0.00008053,-0.0000
 5559,-0.00049602,-0.00077968,-0.00021332,-0.00124000,-0.04281672,-0.00
 475984,-0.04158226,0.00154635,-0.00040941,-0.00125479,-0.21252072,-0.0
 1915212,-0.16211708,0.01256934,0.00455387,0.01256207,0.64970598,0.0012
 3623,0.00235710,0.00003103,0.00001811,0.00010765,0.00005299,0.00006132
 ,-0.00003377,0.00018364,-0.00049630,0.00539870,0.00077683,0.00008061,-
 0.00149915,0.00044312,-0.01688360,-0.05915146,-0.03934636,-0.00331751,
 0.00482550,-0.00507521,-0.00963002,0.14008856,0.00812868,0.00058576,0.
 00746881,-0.00004034,0.00001406,0.00020803,0.00032563,-0.00006212,0.00
 085247,-0.02474365,0.00070773,-0.00477772,0.00193098,0.00014916,0.0010
 5784,-0.16341202,-0.04143986,-0.37486693,-0.01636602,-0.00268435,-0.02
 239144,0.07872411,0.07157596,0.75457979,0.00016639,0.00000935,-0.00000
 807,-0.00014315,0.00002885,0.00013857,0.00001387,0.00004197,0.00009722
 ,0.00089616,-0.00065211,-0.00202861,0.00005300,0.00003429,0.00053885,0
 .01097101,-0.00266451,-0.01659136,-0.00166690,-0.00005764,-0.00293454,
 -0.11552284,0.01852209,0.10888474,0.12345565,-0.00027844,0.00006739,-0
 .00032231,0.00005061,0.00034830,-0.00002091,0.00000620,0.00021708,-0.0
 0004216,0.00065657,-0.00695387,0.00169367,-0.00017357,0.00025113,0.000
 00761,-0.00034435,0.00466003,-0.00508706,0.00020088,0.01019396,-0.0020
 2887,0.02018344,-0.04312886,-0.02951476,-0.01865467,0.03043821,-0.0004
 7021,0.00005286,0.00040229,0.00017040,0.00000042,0.00024790,-0.0000740
 8,-0.00000843,0.00000126,0.00251811,0.00059764,0.00089675,-0.00147997,
 0.00021078,0.00047767,0.01388028,-0.00454910,-0.02425054,-0.00323431,-
 0.00128834,-0.00265486,0.10761124,-0.03176813,-0.26451904,-0.11581937,
 0.03684309,0.28450189,-0.00297638,-0.00068758,-0.00412317,-0.00005728,
 0.00006323,0.00007013,0.00008585,-0.00005432,-0.00006740,0.01176319,0.
 00148109,0.00346401,0.00018353,-0.00008220,0.00013399,-0.04002079,0.00
 150329,-0.02373042,-0.00006765,-0.00221589,0.00210958,-0.24407714,0.01
 004561,0.01420367,-0.01352586,-0.00247384,-0.00269486,0.66073995,-0.00
 051534,0.00002566,0.00001542,0.00001396,0.00014694,-0.00001553,-0.0000
 9335,-0.00129809,0.00015508,0.00112049,0.01084304,-0.00228591,-0.00012
 719,-0.00019006,0.00010562,-0.00328904,0.00516584,0.00090895,-0.000368
 69,-0.00592521,0.00121375,0.01204484,-0.06188718,0.00007150,0.00325514
 ,0.00267794,0.00054455,0.00667836,0.15685340,0.00012275,0.00038311,0.0
 0185878,0.00011114,-0.00016202,0.00001903,-0.00020987,0.00040962,-0.00
 035688,-0.00412003,-0.00366654,-0.00456782,-0.00037991,0.00006958,0.00
 018496,-0.02318046,0.00065413,0.00945733,0.00038436,0.00186876,0.00060
 196,-0.02365153,0.00356787,-0.10986444,0.02969565,-0.00010111,0.002842
 64,-0.10179947,-0.12114902,0.74792939,-0.00057608,0.00002153,0.0001277
 9,0.00001928,-0.00005952,-0.00000413,-0.00009396,0.00015255,-0.0001516
 8,0.00005815,-0.00121103,-0.00127230,-0.00004051,0.00003813,0.00006516
 ,-0.00543991,0.00135279,0.00236648,0.00021802,0.00019125,-0.00011494,-
 0.01193612,0.00543716,-0.03054979,0.00097776,-0.00032752,0.00042837,-0
 .09879498,0.02354871,-0.09526763,0.10595720,0.00033661,-0.00006813,0.0
 0034518,0.00000220,0.00000036,-0.00001589,0.00000284,0.00001388,0.0000
 0773,-0.00106105,-0.00003994,-0.00012560,-0.00000101,0.00002209,-0.000
 03260,0.00146521,0.00184609,0.00055762,0.00006635,0.00007027,0.0001099
 8,-0.00262774,0.00278180,0.00008431,-0.00025797,-0.00057835,0.00030178
 ,0.02559134,-0.05144274,0.04918506,-0.02331043,0.03947453,-0.00005912,
 -0.00002507,0.00013159,0.00001666,0.00001014,0.00000096,-0.00002198,-0
 .00000784,-0.00001980,-0.00011253,-0.00002566,-0.00025030,-0.00004593,
 0.00001460,0.00001796,0.00030913,0.00102652,0.00137329,0.00019708,0.00
 015602,0.00010888,0.00104159,-0.00007629,0.00034289,-0.00044760,-0.000
 48031,0.00101595,-0.09365935,0.05107765,-0.27590494,0.10008796,-0.0587
 2126,0.29541679,0.00045445,0.00022130,0.00126351,0.00000691,0.00001764
 ,-0.00008209,-0.00006800,-0.00015091,-0.00001840,-0.00251183,0.0007789
 7,-0.00164018,0.00001183,0.00002278,-0.00008585,0.00557541,-0.00073814
 ,0.00897895,-0.00042650,-0.00044780,-0.00028921,-0.03862521,-0.0050070
 2,0.02020213,-0.00496772,0.00120016,-0.00057447,-0.26959601,-0.0391227
 2,0.20440513,0.01041606,0.00047832,-0.01080819,0.72693560,0.00005238,0
 .00000479,-0.00002860,0.00001423,-0.00005564,0.00003616,-0.00000468,0.
 00010289,0.00000460,0.00012408,-0.00055088,0.00033262,-0.00007849,0.00
 002703,0.00004313,0.00017992,0.00015905,0.00001689,-0.00025452,0.00024
 160,0.00022868,-0.00126182,0.00655850,-0.00130753,0.00126825,0.0017194
 1,-0.00073325,-0.03784556,-0.06295751,0.06528716,-0.00507341,0.0037338
 8,0.00623675,-0.00587479,0.13876240,-0.00150234,-0.00021693,-0.0015872
 3,-0.00004820,0.00001612,-0.00001626,0.00002768,-0.00006484,-0.0000539
 3,0.00413385,0.00077033,0.00084670,0.00010755,-0.00006478,-0.00000215,
 -0.01009123,0.00082488,-0.00518160,-0.00049420,-0.00143917,0.00012773,
 0.02109117,-0.00135904,0.01380478,-0.00258560,-0.00074432,0.00098215,0
 .18835128,0.06435134,-0.35827361,0.02088970,0.00712260,-0.02173922,-0.
 09629445,-0.14896390,0.72329487,0.00003692,0.00000245,0.00005678,-0.00
 001516,0.00000409,-0.00000660,0.00001645,-0.00001920,0.00001300,-0.000
 11638,0.00016289,-0.00026442,0.00005897,-0.00001002,-0.00001515,-0.000
 20691,-0.00032752,0.00060420,-0.00114475,-0.00054660,-0.00009943,0.000
 36526,-0.00015194,-0.00070355,0.00024963,0.00010858,-0.00018597,0.0124
 6983,-0.00528114,0.01905169,-0.00187939,-0.00020847,0.00334609,-0.0901
 8079,0.02494770,-0.08494393,0.08567440,-0.00008967,0.00002837,0.000011
 83,-0.00001728,0.00000573,-0.00001105,0.00000263,-0.00009329,-0.000001
 44,0.00013356,0.00015245,-0.00047083,0.00012204,-0.00000131,0.00000820
 ,-0.00062260,0.00016363,0.00157483,-0.00054420,0.00048577,-0.00052970,
 -0.00203603,-0.00693237,-0.00269953,0.00022846,0.00009819,-0.00013641,
 0.00508615,0.00371103,0.00474375,-0.00051595,0.01149204,0.00235553,0.0
 2333948,-0.05391794,0.07050066,-0.02526211,0.04280625,0.00007714,-0.00
 001108,-0.00001416,0.00001325,0.00000349,0.00001014,-0.00001058,-0.000
 02346,0.00001090,0.00007122,0.00007632,0.00047368,-0.00012916,0.000033
 49,0.00000198,0.00022061,-0.00031784,0.00009399,-0.00006988,0.00043955
 ,0.00064899,-0.00253929,-0.00208802,0.00027994,0.00015106,-0.00007172,
 0.00006276,-0.00894281,0.00631807,-0.01997402,0.00337845,0.00324622,-0
 .00147194,-0.08216215,0.06927958,-0.28952438,0.08939189,-0.07730416,0.
 30973205,-0.00008219,0.00000543,-0.00002299,0.00000545,-0.00001033,-0.
 00000405,-0.00002415,0.00000906,-0.00001444,0.00004888,-0.00003004,-0.
 00003075,0.00000330,-0.00000821,-0.00000262,0.00028885,0.00010904,0.00
 015617,0.00013047,0.00004932,0.00000679,0.00080428,0.00008525,0.003415
 44,-0.00095699,-0.00015405,-0.00007517,-0.01612626,0.00213599,-0.00516
 182,0.00111449,-0.00047620,0.00015617,-0.33702421,0.02380672,-0.038641
 29,-0.00532810,0.00017553,0.00055025,0.35714616,0.00013626,-0.00004988
 ,-0.00001391,-0.00000063,0.00004979,-0.00001822,0.00001326,0.00009585,
 -0.00000542,-0.00023053,-0.00054838,0.00031237,0.00002066,0.00001163,-
 0.00005737,0.00077126,-0.00035923,-0.00085147,0.00015099,-0.00012327,0
 .00003533,0.00140763,0.01051499,0.00451968,-0.00110149,-0.00001057,-0.
 00006745,-0.00708968,0.00427693,-0.00109037,-0.00024424,-0.00730579,-0
 .00154080,0.02528272,-0.03382756,0.00926705,0.00658130,0.00200147,0.00
 041956,-0.02569752,0.02527403,0.00011321,-0.00003852,-0.00006283,0.000
 01525,0.00002059,0.00001655,0.00000533,0.00003997,0.00001489,0.0000704
 8,-0.00020765,0.00057994,-0.00011273,0.00002317,-0.00000776,0.00008574
 ,-0.00028789,-0.00099319,0.00015011,0.00025911,0.00043136,0.00153319,0
 .00308161,-0.00217499,0.00090906,-0.00013083,-0.00000683,0.02668481,-0
 .00131147,0.00604762,0.00001656,-0.00206512,0.00097790,-0.04289472,0.0
 0956771,-0.06267784,-0.02624459,0.00195830,-0.00032994,0.03966831,-0.0
 1090898,0.05818513\\0.00000705,0.00000028,0.00000748,-0.00001179,-0.00
 000435,0.00000202,-0.00000674,-0.00000315,0.00000442,0.00002622,0.0000
 0829,0.00000046,-0.00000047,-0.00000499,0.00000145,-0.00002639,-0.0000
 0568,-0.00001176,0.00000115,-0.00000006,0.00000350,0.00001146,0.000015
 39,0.00002095,0.00000513,-0.00000134,-0.00000363,-0.00001672,-0.000009
 36,0.00000512,0.00000526,0.00000143,-0.00000565,-0.00000187,-0.0000007
 9,-0.00000588,0.00000481,-0.00000109,-0.00001074,0.00000291,0.00000544
 ,-0.00000774\\\@


 EVERY WORD THAT YOU WRITE IS A BLOW THAT SMITES THE DEVIL.
     -- ST. BERNARD OF CLAIRVAUX
 Job cpu time:  0 days  0 hours  1 minutes 20.4 seconds.
 File lengths (MBytes):  RWF=     24 Int=      0 D2E=      0 Chk=      2 Scr=      1
 Normal termination of Gaussian 09 at Tue Mar  2 15:03:24 2021.
